VARIABLES = "x"
 "y"
 "rho"
 "rhoU"
 "rhoV"
 "rhoE"
 "P"
 "T"
 "ABV"
 "error"
 "error_hMLP"
 "error_BD"
 "ABV_P"
 "ABV_I"
 "ABV_I_BD"
 "ABV_D"
 "Ducros"
 "Sk"
 "trouble_vertex"
 "trouble_face"
 "hMLP_penalty"
 "BD_penalty"
ZONE
DT=(DOUBLE,DOUBLE,DOUBLE,DOUBLE,DOUBLE,DOUBLE,DOUBLE,DOUBLE,DOUBLE,DOUBLE,DOUBLE,DOUBLE,DOUBLE,DOUBLE,DOUBLE,DOUBLE,DOUBLE,DOUBLE,DOUBLE,DOUBLE,DOUBLE,DOUBLE)
                 1.0501                       0        1.87406220584467        1.83437146025824   -0.000134125445085499        7.10176621718982        2.48160210313984        1.85385682106491   4.93587256723837E-029                       0                       0                       0                       0   4.93587256723837E-029                       0                       0       0.966773092746735       0.998450756072998                       0                       0                       0                       3 
                 1.0501    0.000250062515628907        1.87406565015961        1.83455542991677    0.000809878181809063        7.10192800271486        2.48159508379154        1.85384814979597   4.93587256723837E-029                       0                       0                       0                       0   4.93587256723837E-029                       0                       0       0.966773092746735       0.998450756072998                       0                       0                       0                       3 
                 1.0501    0.000500125031257815        1.87407171346766        1.83474339246644     0.00176286375799076        7.10210464351233         2.4815929374878        1.85384053041771   4.93587256723837E-029                       0                       0                       0                       0   4.93587256723837E-029                       0                       0       0.966773092746735       0.998450756072998                       0                       0                       0                       3 
                 1.0501    0.000750187546886722        1.87407777677571        1.83493135501611     0.00271584933417245        7.10228128430979        2.48159079118407        1.85383291103944   4.93587256723837E-029                       0                       0                       0                       0   4.93587256723837E-029                       0                       0       0.966773092746735       0.998450756072998                       0                       0                       0                       3 
                 1.0501     0.00100025006251563        1.87408384008377        1.83511931756578     0.00366883491035415        7.10245792510725        2.48158864488033        1.85382529166118   4.93587256723837E-029                       0                       0                       0                       0   4.93587256723837E-029                       0                       0       0.966773092746735       0.998450756072998                       0                       0                       0                       3 
                 1.0501     0.00125031257814454        1.87409264175272        1.83527890307022     0.00459037197612622        7.10253104148459        2.48155625801948        1.85379239211755   4.93587256723837E-029                       0                       0                       0                       0   4.93587256723837E-029                       0                       0       0.966773092746735       0.998450756072998                       0                       0                       0                       3 
                 1.0501     0.00150037509377344        1.87410830976999        1.83542308102368     0.00550299845502425        7.10254831922966        2.48150850276136        1.85374122960225   4.93587256723837E-029                       0                       0                       0                       0   4.93587256723837E-029                       0                       0       0.966773092746735       0.998450756072998                       0                       0                       0                       3 
                 1.0501     0.00175043760940235        1.87412397778726        1.83556725897713     0.00641562493392227        7.10256559697474        2.48146074750324        1.85369006708694   4.93587256723837E-029                       0                       0                       0                       0   4.93587256723837E-029                       0                       0       0.966773092746735       0.998450756072998                       0                       0                       0                       3 
                 1.0501     0.00200050012503126        1.87413964580453        1.83571143693059      0.0073282514128203        7.10258287471981        2.48141299224511        1.85363890457164   4.93587256723837E-029                       0                       0                       0                       0   4.93587256723837E-029                       0                       0       0.966773092746735       0.998450756072998                       0                       0                       0                       3 
                 1.0501     0.00225056264066016         1.8741556604492        1.83584951849872     0.00823375947580065        7.10257787101267         2.4813587118783        1.85358253048304   4.93587256723837E-029                       0                       0                       0                       0   4.93587256723837E-029                       0                       0       0.966773092746735       0.998450756072998                       0                       0                       0                       3 
                 1.0501     0.00250062515628907        1.87417903695101        1.83594704237176     0.00909958921835291        7.10242510783919        2.48126199313676         1.8534872013121   4.93587256723837E-029                       0                       0                       0                       0   4.93587256723837E-029                       0                       0       0.966773092746735       0.998450756072998                       0                       0                       0                       3 
                 1.0501     0.00275068767191798        1.87420428284871        1.83604743572901     0.00997185648861729        7.10228302253187        2.48116873623944        1.85339260297494   4.93587256723837E-029                       0                       0                       0                       0   4.93587256723837E-029                       0                       0       0.966773092746735       0.998450756072998                       0                       0                       0                       3 
                 1.0501     0.00300075018754689         1.8742295287464        1.83614782908625      0.0108441237588817        7.10214093722456        2.48107547934211        1.85329800463778   4.93587256723837E-029                       0                       0                       0                       0   4.93587256723837E-029                       0                       0       0.966773092746735       0.998450756072998                       0                       0                       0                       3 
                 1.0501     0.00325081270317579        1.87425477464409         1.8362482224435       0.011716391029146        7.10199885191724        2.48098222244479        1.85320340630062   4.93587256723837E-029                       0                       0                       0                       0   4.93587256723837E-029                       0                       0       0.966773092746735       0.998450756072998                       0                       0                       0                       3 
                 1.0501      0.0035008752188047        1.87416498519092        1.83604345765169      0.0124607456074411        7.10116507404303        2.48070989908543        1.85308854073649   1.46318512861399E-009                       0                       0                       0                       0   1.46318512861399E-009                       0                       0       0.980888366699219       0.995457589626312                       0                       0                       0                       4 
                 1.0501     0.00375093773443361        1.87414735867149        1.83606639627287      0.0133195695545597        7.10088863012185        2.48058439397448        1.85301223963868   1.46318512861399E-009                       0                       0                       0                       0   1.46318512861399E-009                       0                       0       0.980888366699219       0.995457589626312                       0                       0                       0                       4 
                 1.0501     0.00400100025006252        1.87412973215206        1.83608933489404      0.0141783935016783        7.10061218620066        2.48045888886352        1.85293593854087   1.46318512861399E-009                       0                       0                       0                       0   1.46318512861399E-009                       0                       0       0.980888366699219       0.995457589626312                       0                       0                       0                       4 
                 1.0501     0.00425106276569142        1.87411210563263        1.83611227351522       0.015037217448797        7.10033574227948        2.48033338375256        1.85285963744306   1.46318512861399E-009                       0                       0                       0                       0   1.46318512861399E-009                       0                       0       0.980888366699219       0.995457589626312                       0                       0                       0                       4 
                 1.0501     0.00450112528132033        1.87406605566679        1.83610057372161      0.0158641966192951        7.09993183677578        2.48016500630589        1.85277940182025   1.46318512861399E-009                       0                       0                       0                       0   1.46318512861399E-009                       0                       0       0.980888366699219       0.995457589626312                       0                       0                       0                       4 
                 1.0501     0.00475118779694924        1.87394190346861        1.83599693019885      0.0166110722646379        7.09919773388724        2.47988539689136        1.85269323811442   1.46318512861399E-009                       0                       0                       0                       0   1.46318512861399E-009                       0                       0       0.980888366699219       0.995457589626312                       0                       0                       0                       4 
                 1.0501     0.00500125031257814         1.8738217104594        1.83589879046053      0.0173639360887953        7.09848559030767        2.47961313826246        1.85260864691843   1.46318512861399E-009                       0                       0                       0                       0   1.46318512861399E-009                       0                       0       0.980888366699219       0.995457589626312                       0                       0                       0                       4 
                 1.0501     0.00525131282820705        1.87370151745019        1.83580065072221      0.0181167999129527         7.0977734467281        2.47934087963356        1.85252405572244   1.46318512861399E-009                       0                       0                       0                       0   1.46318512861399E-009                       0                       0       0.980888366699219       0.995457589626312                       0                       0                       0                       4 
                 1.0501     0.00550137534383596        1.87358132444098        1.83570251098388        0.01886966373711        7.09706130314854        2.47906862100466        1.85243946452645   1.46318512861399E-009                       0                       0                       0                       0   1.46318512861399E-009                       0                       0       0.980888366699219       0.995457589626312                       0                       0                       0                       4 
                 1.0501     0.00575143785946487        1.87337165346145          1.835496818039      0.0195257097400809        7.09595724218217        2.47866459404096        1.85234484627228   1.46318512861399E-009                       0                       0                       0                       0   1.46318512861399E-009                       0                       0       0.980888366699219       0.995457589626312                       0                       0                       0                       4 
                 1.0501     0.00600150037509377        1.87314889396246        1.83527759994117      0.0201726128124772        7.09480939894421         2.4782457428669         1.8522520722933   1.46318512861399E-009                       0                       0                       0                       0   1.46318512861399E-009                       0                       0       0.980888366699219       0.995457589626312                       0                       0                       0                       4 
                 1.0501     0.00625156289072268        1.87292613446348        1.83505838184335      0.0208195158848734        7.09366155570626        2.47782689169285        1.85215929831432   1.46318512861399E-009                       0                       0                       0                       0   1.46318512861399E-009                       0                       0       0.980888366699219       0.995457589626312                       0                       0                       0                       4 
                 1.0501     0.00650162540635159        1.87270337496449        1.83483916374552      0.0214664189572697         7.0925137124683        2.47740804051879        1.85206652433533   1.46318512861399E-009                       0                       0                       0                       0   1.46318512861399E-009                       0                       0       0.980888366699219       0.995457589626312                       0                       0                       0                       4 
                 1.0501     0.00675168792198049        1.87250726214755        1.83457827421074      0.0221642987673677        7.09149330897532         2.4770614786257        1.85200131160048   1.47217342483241E-011                       0                       0                       0                       0   1.47217342483241E-011                       0                       0       0.957691550254822       0.995881795883179                       0                       0                       0                       4 
                 1.0501      0.0070017504376094        1.87214230009775        1.83399500286354      0.0226557642975394        7.08956657462114        2.47644681238819        1.85190264849364   1.47217342483241E-011                       0                       0                       0                       0   1.47217342483241E-011                       0                       0       0.957691550254822       0.995881795883179                       0                       0                       0                       4 
                 1.0501     0.00725181295323831        1.87177879673128        1.83341373015426       0.023149113171231        7.08764788639645        2.47583484753549        1.85180456241291   1.47217342483241E-011                       0                       0                       0                       0   1.47217342483241E-011                       0                       0       0.957691550254822       0.995881795883179                       0                       0                       0                       4 
                 1.0501     0.00750187546886722        1.87141529336481        1.83283245744499      0.0236424620449227        7.08572919817175        2.47522288268279        1.85170647633218   1.47217342483241E-011                       0                       0                       0                       0   1.47217342483241E-011                       0                       0       0.957691550254822       0.995881795883179                       0                       0                       0                       4 
                 1.0501     0.00775193798449612        1.87105178999834        1.83225118473572      0.0241358109186143        7.08381050994705         2.4746109178301        1.85160839025145   1.47217342483241E-011                       0                       0                       0                       0   1.47217342483241E-011                       0                       0       0.957691550254822       0.995881795883179                       0                       0                       0                       4 
                 1.0501     0.00800200050012503        1.87060665463922        1.83155877805887      0.0244984225024927        7.08139665918184         2.4738292848832        1.85146391898155   1.47217342483241E-011                       0                       0                       0                       0   1.47217342483241E-011                       0                       0       0.957691550254822       0.995881795883179                       0                       0                       0                       4 
                 1.0501     0.00825206301575394        1.87016293317063        1.83086841946222      0.0248599547908049        7.07898550156494        2.47304813763853        1.85131839958826   1.47217342483241E-011                       0                       0                       0                       0   1.47217342483241E-011                       0                       0       0.957691550254822       0.995881795883179                       0                       0                       0                       4 
                 1.0501     0.00850212553138285        1.86971921170203        1.83017806086557       0.025221487079117        7.07657434394804        2.47226699039385        1.85117288019497   1.47217342483241E-011                       0                       0                       0                       0   1.47217342483241E-011                       0                       0       0.957691550254822       0.995881795883179                       0                       0                       0                       4 
                 1.0501     0.00875218804701175        1.86927549023343        1.82948770226892      0.0255830193674292        7.07416318633114        2.47148584314917        1.85102736080167   1.47217342483241E-011                       0                       0                       0                       0   1.47217342483241E-011                       0                       0       0.957691550254822       0.995881795883179                       0                       0                       0                       4 
                 1.0501     0.00900225056264066        1.86878570003988        1.82873456811704      0.0258722532776512        7.07147524242174        2.47061008620637        1.85085639194364   1.47217342483241E-011                       0                       0                       0                       0   1.47217342483241E-011                       0                       0       0.957691550254822       0.995881795883179                       0                       0                       0                       4 
                 1.0501     0.00925231307826957        1.86826176024957        1.82793506964035      0.0261019690768566        7.06857172151098        2.46965997080189        1.85066330501288   1.47217342483241E-011                       0                       0                       0                       0   1.47217342483241E-011                       0                       0       0.957691550254822       0.995881795883179                       0                       0                       0                       4 
                 1.0501     0.00950237559389847        1.86773782045927        1.82713557116367      0.0263316848760621        7.06566820060022        2.46870985539742        1.85047021808212   1.47217342483241E-011                       0                       0                       0                       0   1.47217342483241E-011                       0                       0       0.957691550254822       0.995881795883179                       0                       0                       0                       4 
                 1.0501     0.00975243810952738        1.86721388066896        1.82633607268698      0.0265614006752675        7.06276467968945        2.46775973999295        1.85027713115136   1.47217342483241E-011                       0                       0                       0                       0   1.47217342483241E-011                       0                       0       0.957691550254822       0.995881795883179                       0                       0                       0                       4 
                 1.0501      0.0100025006251563        1.86687830291557        1.82574639633756      0.0270218313642994        7.06083451377057        2.46715139692025         1.8501537616369    5.3424473178687E-011                       0                       0                       0                       0    5.3424473178687E-011                       0                       0       0.532933473587036       0.998294651508331                       0                       0                       0                       4 
                 1.0501      0.0102525631407852         1.8662269521658        1.82481821362502      0.0270552365395508        7.05726042040197        2.46596001014074        1.84990545305544    5.3424473178687E-011                       0                       0                       0                       0    5.3424473178687E-011                       0                       0       0.532933473587036       0.998294651508331                       0                       0                       0                       4 
                 1.0501      0.0105026256564141        1.86557364441119        1.82388779134545      0.0270848974386702        7.05367598735007        2.46476500237901        1.84965640144007    5.3424473178687E-011                       0                       0                       0                       0    5.3424473178687E-011                       0                       0       0.532933473587036       0.998294651508331                       0                       0                       0                       4 
                 1.0501       0.010752688172043        1.86492033665658        1.82295736906587      0.0271145583377895        7.05009155429817        2.46356999461728        1.84940734982469    5.3424473178687E-011                       0                       0                       0                       0    5.3424473178687E-011                       0                       0       0.532933473587036       0.998294651508331                       0                       0                       0                       4 
                 1.0501      0.0110027506876719        1.86426702890197         1.8220269467863      0.0271442192369089        7.04650712124626        2.46237498685555        1.84915829820931    5.3424473178687E-011                       0                       0                       0                       0    5.3424473178687E-011                       0                       0       0.532933473587036       0.998294651508331                       0                       0                       0                       4 
                 1.0501      0.0112528132033008        1.86362531661603         1.8211178399564      0.0271757028447075        7.04298307829421        2.46119793125582        1.84891076423843    5.3424473178687E-011                       0                       0                       0                       0    5.3424473178687E-011                       0                       0       0.532933473587036       0.998294651508331                       0                       0                       0                       4 
                 1.0501      0.0115028757189297        1.86298891046283         1.8202209797357      0.0272018039212345        7.03948642609746        2.46002808791429        1.84866302702589    5.3424473178687E-011                       0                       0                       0                       0    5.3424473178687E-011                       0                       0       0.532933473587036       0.998294651508331                       0                       0                       0                       4 
                 1.0501      0.0117529382345586        1.86235250430963        1.81932411951499      0.0272279049977615         7.0359897739007        2.45885824457277        1.84841528981335    5.3424473178687E-011                       0                       0                       0                       0    5.3424473178687E-011                       0                       0       0.532933473587036       0.998294651508331                       0                       0                       0                       4 
                 1.0501      0.0120030007501875        1.86171609815642        1.81842725929428      0.0272540060742885        7.03249312170395        2.45768840123125        1.84816755260081    5.3424473178687E-011                       0                       0                       0                       0    5.3424473178687E-011                       0                       0       0.532933473587036       0.998294651508331                       0                       0                       0                       4 
                 1.0501      0.0122530632658165        1.86108239875064        1.81753525332515      0.0272808518578167         7.0290105525545        2.45652280664051         1.8479202257177    5.3424473178687E-011                       0                       0                       0                       0    5.3424473178687E-011                       0                       0       0.532933473587036       0.998294651508331                       0                       0                       0                       4 
                 1.0501      0.0125031257814454        1.86046431050901        1.81667359920515      0.0273060489428583        7.02560899295638        2.45538069861839        1.84767441838637    5.3424473178687E-011                       0                       0                       0                       0    5.3424473178687E-011                       0                       0       0.532933473587036       0.998294651508331                       0                       0                       0                       4 
                 1.0501      0.0127531882970743        1.85984483385286        1.81581035620435      0.0273285897338378         7.0222001274765        2.45423602165818        1.84742807647832    5.3424473178687E-011                       0                       0                       0                       0    5.3424473178687E-011                       0                       0       0.532933473587036       0.998294651508331                       0                       0                       0                       4 
                 1.0501      0.0130032508127032        1.85922535719671        1.81494711320356      0.0273511305248174        7.01879126199661        2.45309134469796        1.84718173457028    5.3424473178687E-011                       0                       0                       0                       0    5.3424473178687E-011                       0                       0       0.532933473587036       0.998294651508331                       0                       0                       0                       4 
                 1.0501      0.0132533133283321        1.85860588054056        1.81408387020277      0.0273736713157969        7.01538239651672        2.45194666773775        1.84693539266223    5.3424473178687E-011                       0                       0                       0                       0    5.3424473178687E-011                       0                       0       0.532933473587036       0.998294651508331                       0                       0                       0                       4 
                 1.0501       0.013503375843961        1.85799719080124        1.81323149989094      0.0273489229174981        7.01201750355714        2.45081750668037        1.84668971494685   1.13461332343356E-011                       0                       0                       0                       0   1.13461332343356E-011                       0                       0        0.99837452173233       0.996112108230591                       0                       0                       0                       4 