VARIABLES = "x"
 "y"
 "rho"
 "rhoU"
 "rhoV"
 "rhoE"
 "P"
 "T"
 "ABV"
 "error"
 "error_hMLP"
 "error_BD"
 "ABV_P"
 "ABV_I"
 "ABV_I_BD"
 "ABV_D"
 "Ducros"
 "Sk"
 "trouble_vertex"
 "trouble_face"
 "hMLP_penalty"
 "BD_penalty"
ZONE
DT=(DOUBLE,DOUBLE,DOUBLE,DOUBLE,DOUBLE,DOUBLE,DOUBLE,DOUBLE,DOUBLE,DOUBLE,DOUBLE,DOUBLE,DOUBLE,DOUBLE,DOUBLE,DOUBLE,DOUBLE,DOUBLE,DOUBLE,DOUBLE,DOUBLE,DOUBLE)
                 0.5201                       0        1.94644186252665        1.72028635122461   -0.000264457138752169        7.34939086431301        2.63567468256194        1.89573841959509   4.78911521550884E-010                       0                       0                       0                       0   4.78807493653477E-010   1.04006823227649E-013                       0       0.105485133826733       0.996411979198456                       0                       0                       0                       3 
                 0.5201    0.000250062515628907        1.94645746531266        1.72049547942288   -0.000299068309317716        7.34957649637824        2.63567742980447        1.89572519380109   4.78911521550884E-010                       0                       0                       0                       0   4.78807493653477E-010   1.04006823227649E-013                       0       0.105485133826733       0.996411979198456                       0                       0                       0                       3 
                 0.5201    0.000500125031257815        1.94646411885424        1.72068046397611   -0.000272969044979324        7.34974358612408        2.63567989805376        1.89572049876166   4.78911521550884E-010                       0                       0                       0                       0   4.78807493653477E-010   1.04006823227649E-013                       0       0.105485133826733       0.996411979198456                       0                       0                       0                       3 
                 0.5201    0.000750187546886722        1.94647077239582        1.72086544852935   -0.000246869780640932        7.34991067586991        2.63568236630306        1.89571580372224   4.78911521550884E-010                       0                       0                       0                       0   4.78807493653477E-010   1.04006823227649E-013                       0       0.105485133826733       0.996411979198456                       0                       0                       0                       3 
                 0.5201     0.00100025006251563         1.9464774259374        1.72105043308259   -0.000220770516302541        7.35007776561575        2.63568483455235        1.89571110868282   4.78911521550884E-010                       0                       0                       0                       0   4.78807493653477E-010   1.04006823227649E-013                       0       0.105485133826733       0.996411979198456                       0                       0                       0                       3 
                 0.5201     0.00125031257814454        1.94651873553587        1.72135776762404    -0.00027919843238091        7.35034396847275        2.63568901088122        1.89567386557882   4.78911521550884E-010                       0                       0                       0                       0   4.78807493653477E-010   1.04006823227649E-013                       0       0.105485133826733       0.996411979198456                       0                       0                       0                       3 
                 0.5201     0.00150037509377344        1.94657158826536        1.72171915151557   -0.000295883749677722        7.35065571909039        2.63569416201019         1.8956260834919   4.78911521550884E-010                       0                       0                       0                       0   4.78807493653477E-010   1.04006823227649E-013                       0       0.105485133826733       0.996411979198456                       0                       0                       0                       3 
                 0.5201     0.00175043760940235        1.94662444099486         1.7220805354071   -0.000312569066974534        7.35096746970803        2.63569931313915        1.89557830140498   4.78911521550884E-010                       0                       0                       0                       0   4.78807493653477E-010   1.04006823227649E-013                       0       0.105485133826733       0.996411979198456                       0                       0                       0                       3 
                 0.5201     0.00200050012503126        1.94667729372436        1.72244191929863   -0.000329254384271345        7.35127922032566        2.63570446426812        1.89553051931806   4.78911521550884E-010                       0                       0                       0                       0   4.78807493653477E-010   1.04006823227649E-013                       0       0.105485133826733       0.996411979198456                       0                       0                       0                       3 
                 0.5201     0.00225056264066016        1.94673791516433        1.72283013640737   -0.000367991487445287        7.35161263211491        2.63570994986212        1.89547541548756   4.78911521550884E-010                       0                       0                       0                       0   4.78807493653477E-010   1.04006823227649E-013                       0       0.105485133826733       0.996411979198456                       0                       0                       0                       3 
                 0.5201     0.00250062515628907         1.9468433727832        1.72338522195206     -0.0004709689497946        7.35208236254183         2.6357177076589        1.89537834076138   4.78911521550884E-010                       0                       0                       0                       0   4.78807493653477E-010   1.04006823227649E-013                       0       0.105485133826733       0.996411979198456                       0                       0                       0                       3 
                 0.5201     0.00275068767191798        1.94694242470062        1.72392300518188   -0.000530438855276614        7.35253877403127        2.63572532703716        1.89528741796937   4.78911521550884E-010                       0                       0                       0                       0   4.78807493653477E-010   1.04006823227649E-013                       0       0.105485133826733       0.996411979198456                       0                       0                       0                       3 
                 0.5201     0.00300075018754689        1.94704147661803        1.72446078841171   -0.000589908760758628        7.35299518552071        2.63573294641542        1.89519649517735   4.78911521550884E-010                       0                       0                       0                       0   4.78807493653477E-010   1.04006823227649E-013                       0       0.105485133826733       0.996411979198456                       0                       0                       0                       3 
                 0.5201     0.00325081270317579        1.94714052853544        1.72499857164153   -0.000649378666240642        7.35345159701014        2.63574056579369        1.89510557238534   4.78911521550884E-010                       0                       0                       0                       0   4.78807493653477E-010   1.04006823227649E-013                       0       0.105485133826733       0.996411979198456                       0                       0                       0                       3 
                 0.5201      0.0035008752188047        1.94711812663914         1.7239514885373    -0.00118879707522364        7.35273666299391        2.63582167106582         1.8951857052853   2.86098345014807E-009                       0                       0                       0                       0   2.86054691045479E-009   4.36482718458447E-013                       0      0.0185179729014635       0.995319962501526                       0                       0                       0                       4 
                 0.5201     0.00375093773443361        1.94720389830219        1.72461990117825    -0.00142663156765725        7.35325488803094        2.63580552013021         1.8950906240298   2.86098345014807E-009                       0                       0                       0                       0   2.86054691045479E-009   4.36482718458447E-013                       0      0.0185179729014635       0.995319962501526                       0                       0                       0                       4 
                 0.5201     0.00400100025006252        1.94728966996524         1.7252883138192    -0.00166446606009086        7.35377311306797         2.6357893691946         1.8949955427743   2.86098345014807E-009                       0                       0                       0                       0   2.86054691045479E-009   4.36482718458447E-013                       0      0.0185179729014635       0.995319962501526                       0                       0                       0                       4 
                 0.5201     0.00425106276569142        1.94737544162828        1.72595672646015    -0.00190230055252447          7.354291338105        2.63577321825899         1.8949004615188   2.86098345014807E-009                       0                       0                       0                       0   2.86054691045479E-009   4.36482718458447E-013                       0      0.0185179729014635       0.995319962501526                       0                       0                       0                       4 
                 0.5201     0.00450112528132033        1.94746549444372        1.72663101960445    -0.00218313323561981        7.35481617946845        2.63575810112438        1.89480196871999   2.86098345014807E-009                       0                       0                       0                       0   2.86054691045479E-009   4.36482718458447E-013                       0      0.0185179729014635       0.995319962501526                       0                       0                       0                       4 
                 0.5201     0.00475118779694924        1.94752736938169        1.72718917156551    -0.00255520401377337         7.3552487932987        2.63574256313851        1.89473060622339   2.86098345014807E-009                       0                       0                       0                       0   2.86054691045479E-009   4.36482718458447E-013                       0      0.0185179729014635       0.995319962501526                       0                       0                       0                       4 
                 0.5201     0.00500125031257814        1.94758027576877        1.72771877201234    -0.00291564868781936        7.35565734221483        2.63572619757253        1.89466737074958   2.86098345014807E-009                       0                       0                       0                       0   2.86054691045479E-009   4.36482718458447E-013                       0      0.0185179729014635       0.995319962501526                       0                       0                       0                       4 
                 0.5201     0.00525131282820705        1.94763318215586        1.72824837245917    -0.00327609336186535        7.35606589113096        2.63570983200654        1.89460413527576   2.86098345014807E-009                       0                       0                       0                       0   2.86054691045479E-009   4.36482718458447E-013                       0      0.0185179729014635       0.995319962501526                       0                       0                       0                       4 
                 0.5201     0.00550137534383596        1.94768608854295          1.728777972906    -0.00363653803591133        7.35647444004708        2.63569346644055        1.89454089980194   2.86098345014807E-009                       0                       0                       0                       0   2.86054691045479E-009   4.36482718458447E-013                       0      0.0185179729014635       0.995319962501526                       0                       0                       0                       4 
                 0.5201     0.00575143785946487        1.94773394918809        1.72926474354933    -0.00411985996228197        7.35685257603345        2.63567877839509        1.89448377902046   2.86098345014807E-009                       0                       0                       0                       0   2.86054691045479E-009   4.36482718458447E-013                       0      0.0185179729014635       0.995319962501526                       0                       0                       0                       4 
                 0.5201     0.00600150037509377        1.94775401712802        1.72965555863083    -0.00460291475244034        7.35715134151349        2.63566219819873        1.89445233567073   2.86098345014807E-009                       0                       0                       0                       0   2.86054691045479E-009   4.36482718458447E-013                       0      0.0185179729014635       0.995319962501526                       0                       0                       0                       4 
                 0.5201     0.00625156289072268        1.94777408506795        1.73004637371234    -0.00508596954259871        7.35745010699352        2.63564561800237          1.894420892321   2.86098345014807E-009                       0                       0                       0                       0   2.86054691045479E-009   4.36482718458447E-013                       0      0.0185179729014635       0.995319962501526                       0                       0                       0                       4 
                 0.5201     0.00650162540635159        1.94779415300788        1.73043718879385    -0.00556902433275708        7.35774887247356        2.63562903780601        1.89438944897127   2.86098345014807E-009                       0                       0                       0                       0   2.86054691045479E-009   4.36482718458447E-013                       0      0.0185179729014635       0.995319962501526                       0                       0                       0                       4 
                 0.5201     0.00675168792198049        1.94777551006779        1.72984037307049    -0.00577057898437643        7.35752961177363        2.63574990383344        1.89449452047312   2.27357386389793E-011                       0                       0                       0                       0   2.20867681782755E-011    6.4896926808139E-013                       0      0.0190223753452301       0.995474696159363                       0                       0                       0                       4 
                 0.5201      0.0070017504376094        1.94785302548652        1.73034597012729    -0.00646141418495465        7.35791378429511        2.63573511864104        1.89440850537401   2.27357386389793E-011                       0                       0                       0                       0   2.20867681782755E-011    6.4896926808139E-013                       0      0.0190223753452301       0.995474696159363                       0                       0                       0                       4 
                 0.5201     0.00725181295323831        1.94792801197329        1.73084689059045    -0.00715015446020268        7.35829314348042        2.63571971891173        1.89432450441154   2.27357386389793E-011                       0                       0                       0                       0   2.20867681782755E-011    6.4896926808139E-013                       0      0.0190223753452301       0.995474696159363                       0                       0                       0                       4 
                 0.5201     0.00750187546886722        1.94800299846007        1.73134781105361    -0.00783889473545071        7.35867250266574        2.63570431918243        1.89424050344908   2.27357386389793E-011                       0                       0                       0                       0   2.20867681782755E-011    6.4896926808139E-013                       0      0.0190223753452301       0.995474696159363                       0                       0                       0                       4 
                 0.5201     0.00775193798449612        1.94807798494684        1.73184873151677    -0.00852763501069874        7.35905186185106        2.63568891945312        1.89415650248661   2.27357386389793E-011                       0                       0                       0                       0   2.20867681782755E-011    6.4896926808139E-013                       0      0.0190223753452301       0.995474696159363                       0                       0                       0                       4 
                 0.5201     0.00800200050012503        1.94820990713795        1.73246345547871    -0.00927581069705229        7.35955723278634        2.63569141092045        1.89403008147912   2.27357386389793E-011                       0                       0                       0                       0   2.20867681782755E-011    6.4896926808139E-013                       0      0.0190223753452301       0.995474696159363                       0                       0                       0                       4 
                 0.5201     0.00825206301575394        1.94832959040003        1.73305650602973     -0.0100152521580614        7.36004122427878        2.63569146457804        1.89391377864543   2.27357386389793E-011                       0                       0                       0                       0   2.20867681782755E-011    6.4896926808139E-013                       0      0.0190223753452301       0.995474696159363                       0                       0                       0                       4 
                 0.5201     0.00850212553138285         1.9484492736621        1.73364955658076     -0.0107546936190704        7.36052521577123        2.63569151823563        1.89379747581174   2.27357386389793E-011                       0                       0                       0                       0   2.20867681782755E-011    6.4896926808139E-013                       0      0.0190223753452301       0.995474696159363                       0                       0                       0                       4 
                 0.5201     0.00875218804701175        1.94856895692417        1.73424260713178     -0.0114941350800795        7.36100920726367        2.63569157189323        1.89368117297805   2.27357386389793E-011                       0                       0                       0                       0   2.20867681782755E-011    6.4896926808139E-013                       0      0.0190223753452301       0.995474696159363                       0                       0                       0                       4 
                 0.5201     0.00900225056264066        1.94872578467137        1.73490861839475     -0.0122705345487976        7.36157283507205        2.63570252838993        1.89353672192133   2.27357386389793E-011                       0                       0                       0                       0   2.20867681782755E-011    6.4896926808139E-013                       0      0.0190223753452301       0.995474696159363                       0                       0                       0                       4 
                 0.5201     0.00925231307826957        1.94889021843524         1.7355938261496     -0.0130606771075127        7.36216167374877        2.63571787446808        1.89338800983891   2.27357386389793E-011                       0                       0                       0                       0   2.20867681782755E-011    6.4896926808139E-013                       0      0.0190223753452301       0.995474696159363                       0                       0                       0                       4 
                 0.5201     0.00950237559389847        1.94905465219912        1.73627903390445     -0.0138508196662277        7.36275051242549        2.63573322054622        1.89323929775648   2.27357386389793E-011                       0                       0                       0                       0   2.20867681782755E-011    6.4896926808139E-013                       0      0.0190223753452301       0.995474696159363                       0                       0                       0                       4 
                 0.5201     0.00975243810952738          1.949219085963         1.7369642416593     -0.0146409622249428        7.36333935110221        2.63574856662436        1.89309058567406   2.27357386389793E-011                       0                       0                       0                       0   2.20867681782755E-011    6.4896926808139E-013                       0      0.0190223753452301       0.995474696159363                       0                       0                       0                       4 
                 0.5201      0.0100025006251563        1.94928583898847         1.7368791419036     -0.0146657446113787        7.36389022795759        2.63601020154368        1.89321347954105   6.26094953659617E-010                       0                       0                       0                       0   6.22974227759698E-010   3.12074780080274E-012                       0      0.0307538509368896       0.998114764690399                       0                       0                       0                       4 
                 0.5201      0.0102525631407852         1.9495683723037        1.73776796762153     -0.0156270528863412        7.36466082150119        2.63604260325797        1.89296259859875   6.26094953659617E-010                       0                       0                       0                       0   6.22974227759698E-010   3.12074780080274E-012                       0      0.0307538509368896       0.998114764690399                       0                       0                       0                       4 
                 0.5201      0.0105026256564141        1.94985546713685        1.73870718974273     -0.0166314792265927        7.36547502148217        2.63607554900651        1.89270756416422   6.26094953659617E-010                       0                       0                       0                       0   6.22974227759698E-010   3.12074780080274E-012                       0      0.0307538509368896       0.998114764690399                       0                       0                       0                       4 
                 0.5201       0.010752688172043           1.95014256197        1.73964641186393     -0.0176359055668441        7.36628922146316        2.63610849475505        1.89245252972968   6.26094953659617E-010                       0                       0                       0                       0   6.22974227759698E-010   3.12074780080274E-012                       0      0.0307538509368896       0.998114764690399                       0                       0                       0                       4 
                 0.5201      0.0110027506876719        1.95042965680315        1.74058563398513     -0.0186403319070956        7.36710342144414        2.63614144050359        1.89219749529515   6.26094953659617E-010                       0                       0                       0                       0   6.22974227759698E-010   3.12074780080274E-012                       0      0.0307538509368896       0.998114764690399                       0                       0                       0                       4 
                 0.5201      0.0112528132033008        1.95071181034798        1.74146528808413     -0.0195413189516831        7.36786053435553          2.636171333193        1.89194538377519   6.26094953659617E-010                       0                       0                       0                       0   6.22974227759698E-010   3.12074780080274E-012                       0      0.0307538509368896       0.998114764690399                       0                       0                       0                       4 
                 0.5201      0.0115028757189297        1.95099842250322        1.74239058684126     -0.0204412477172995        7.36865284271169        2.63619961075657        1.89168780039013   6.26094953659617E-010                       0                       0                       0                       0   6.22974227759698E-010   3.12074780080274E-012                       0      0.0307538509368896       0.998114764690399                       0                       0                       0                       4 
                 0.5201      0.0117529382345586        1.95128503465847        1.74331588559838     -0.0213411764829158        7.36944515106785        2.63622788832014        1.89143021700508   6.26094953659617E-010                       0                       0                       0                       0   6.22974227759698E-010   3.12074780080274E-012                       0      0.0307538509368896       0.998114764690399                       0                       0                       0                       4 
                 0.5201      0.0120030007501875        1.95157164681372        1.74424118435551     -0.0222411052485322          7.370237459424        2.63625616588371        1.89117263362002   6.26094953659617E-010                       0                       0                       0                       0   6.22974227759698E-010   3.12074780080274E-012                       0      0.0307538509368896       0.998114764690399                       0                       0                       0                       4 
                 0.5201      0.0122530632658165        1.95185676000685        1.74514883333506     -0.0231145085755752        7.37101327613195        2.63628381475303        1.89091612896356   6.26094953659617E-010                       0                       0                       0                       0   6.22974227759698E-010   3.12074780080274E-012                       0      0.0307538509368896       0.998114764690399                       0                       0                       0                       4 
                 0.5201      0.0125031257814454        1.95213966060461        1.74602451095286     -0.0238793507508292        7.37175275827644        2.63630746059594        1.89065923799948   6.26094953659617E-010                       0                       0                       0                       0   6.22974227759698E-010   3.12074780080274E-012                       0      0.0307538509368896       0.998114764690399                       0                       0                       0                       4 
                 0.5201      0.0127531882970743        1.95242578960149        1.74693593845233     -0.0246747798043883        7.37252317367956        2.63633128455742        1.89039926706842   6.26094953659617E-010                       0                       0                       0                       0   6.22974227759698E-010   3.12074780080274E-012                       0      0.0307538509368896       0.998114764690399                       0                       0                       0                       4 
                 0.5201      0.0130032508127032        1.95271191859836        1.74784736595181     -0.0254702088579474        7.37329358908268        2.63635510851891        1.89013929613736   6.26094953659617E-010                       0                       0                       0                       0   6.22974227759698E-010   3.12074780080274E-012                       0      0.0307538509368896       0.998114764690399                       0                       0                       0                       4 
                 0.5201      0.0132533133283321        1.95299804759524        1.74875879345128     -0.0262656379115065         7.3740640044858        2.63637893248039         1.8898793252063   6.26094953659617E-010                       0                       0                       0                       0   6.22974227759698E-010   3.12074780080274E-012                       0      0.0307538509368896       0.998114764690399                       0                       0                       0                       4 
                 0.5201       0.013503375843961        1.95325520223499        1.74976482923879     -0.0269537121277194        7.37492251934587        2.63639932325832        1.88964524022906   2.06471451047463E-010                       0                       0                       0                       0   1.97948463176445E-010   8.52300088144409E-012                       0       0.140822887420654        0.99556702375412                       0                       0                       0                       4 