VARIABLES = "x"
 "y"
 "rho"
 "rhoU"
 "rhoV"
 "rhoE"
 "P"
 "T"
 "ABV"
 "error"
 "error_hMLP"
 "error_BD"
 "ABV_P"
 "ABV_I"
 "ABV_I_BD"
 "ABV_D"
 "Ducros"
 "Sk"
 "trouble_vertex"
 "trouble_face"
 "hMLP_penalty"
 "BD_penalty"
ZONE
DT=(DOUBLE,DOUBLE,DOUBLE,DOUBLE,DOUBLE,DOUBLE,DOUBLE,DOUBLE,DOUBLE,DOUBLE,DOUBLE,DOUBLE,DOUBLE,DOUBLE,DOUBLE,DOUBLE,DOUBLE,DOUBLE,DOUBLE,DOUBLE,DOUBLE,DOUBLE)
                 0.5201                       0        1.93779598715441        1.71928101825884   -0.000138894492759777         7.3242961140678         2.6246369478503        1.89622220221304   1.48478770944926E-010                       0                       0                       0                       0    1.4847621743197E-010   2.54560293945993E-015                       0       0.262487858533859       0.996536254882813                       0                       0                       0                       3 
                 0.5201    0.000250062515628907         1.9378188549414        1.71941429304047    -0.00024958313422278        7.32441437816424        2.62464059146427        1.89620243333929   1.48478770944926E-010                       0                       0                       0                       0    1.4847621743197E-010   2.54560293945993E-015                       0       0.262487858533859       0.996536254882813                       0                       0                       0                       3 
                 0.5201    0.000500125031257815        1.93783992001901        1.71953066742168   -0.000338289232209367        7.32452468029425        2.62464678891652        1.89618628240311   1.48478770944926E-010                       0                       0                       0                       0    1.4847621743197E-010   2.54560293945993E-015                       0       0.262487858533859       0.996536254882813                       0                       0                       0                       3 
                 0.5201    0.000750187546886722        1.93786098509662        1.71964704180289   -0.000426995330195954        7.32463498242427        2.62465298636877        1.89617013146694   1.48478770944926E-010                       0                       0                       0                       0    1.4847621743197E-010   2.54560293945993E-015                       0       0.262487858533859       0.996536254882813                       0                       0                       0                       3 
                 0.5201     0.00100025006251563         1.9378942793688        1.71980520875253   -0.000532424753781141        7.32477843100424        2.62465948340933        1.89614223666924   1.48478770944926E-010                       0                       0                       0                       0    1.4847621743197E-010   2.54560293945993E-015                       0       0.262487858533859       0.996536254882813                       0                       0                       0                       3 
                 0.5201     0.00125031257814454        1.93797566094211        1.72010645863444   -0.000664990715867402        7.32504613042955        2.62467234915704        1.89607194622133   1.48478770944926E-010                       0                       0                       0                       0    1.4847621743197E-010   2.54560293945993E-015                       0       0.262487858533859       0.996536254882813                       0                       0                       0                       3 
                 0.5201     0.00150037509377344        1.93805610262035        1.72039889700013    -0.00078609544116123        7.32530967865165        2.62468655947686        1.89600355514469   1.48478770944926E-010                       0                       0                       0                       0    1.4847621743197E-010   2.54560293945993E-015                       0       0.262487858533859       0.996536254882813                       0                       0                       0                       3 
                 0.5201     0.00175043760940235         1.9381365442986        1.72069133536583   -0.000907200166455059        7.32557322687376        2.62470076979667        1.89593516406805   1.48478770944926E-010                       0                       0                       0                       0    1.4847621743197E-010   2.54560293945993E-015                       0       0.262487858533859       0.996536254882813                       0                       0                       0                       3 
                 0.5201     0.00200050012503126        1.93824144436599         1.7210673708519    -0.00106175155026025        7.32590297212754        2.62471555532603         1.8958432613013   1.48478770944926E-010                       0                       0                       0                       0    1.4847621743197E-010   2.54560293945993E-015                       0       0.262487858533859       0.996536254882813                       0                       0                       0                       3 
                 0.5201     0.00225056264066016        1.93838127819565        1.72153662713434    -0.00121619481235666        7.32631997953952        2.62473766717455        1.89572244248131   1.48478770944926E-010                       0                       0                       0                       0    1.4847621743197E-010   2.54560293945993E-015                       0       0.262487858533859       0.996536254882813                       0                       0                       0                       3 
                 0.5201     0.00250062515628907          1.938521033874        1.72200516078479     -0.0013696981382119        7.32673664865267        2.62475989036192        1.89560177996395   1.48478770944926E-010                       0                       0                       0                       0    1.4847621743197E-010   2.54560293945993E-015                       0       0.262487858533859       0.996536254882813                       0                       0                       0                       3 
                 0.5201     0.00275068767191798        1.93866078955235        1.72247369443523    -0.00152320146406714        7.32715331776581         2.6247821135493        1.89548111744658   1.48478770944926E-010                       0                       0                       0                       0    1.4847621743197E-010   2.54560293945993E-015                       0       0.262487858533859       0.996536254882813                       0                       0                       0                       3 
                 0.5201     0.00300075018754689        1.93873282922645        1.72160167622959     -0.0019488115686336        7.32601327850634        2.62464701482203        1.89531324220484   1.33670319257817E-009                       0                       0                       0                       0    1.3366909801249E-009   1.21602548655022E-014                       0      0.0413751862943172       0.996550738811493                       0                       0                       0                       4 
                 0.5201     0.00325081270317579         1.9388813489787        1.72214213788649    -0.00199839843096356        7.32651571034259        2.62467944189544        1.89519145287798   1.33670319257817E-009                       0                       0                       0                       0    1.3366909801249E-009   1.21602548655022E-014                       0      0.0413751862943172       0.996550738811493                       0                       0                       0                       4 
                 0.5201      0.0035008752188047        1.93902986873094        1.72268259954339    -0.00204798529329352        7.32701814217885        2.62471186896885        1.89506966355111   1.33670319257817E-009                       0                       0                       0                       0    1.3366909801249E-009   1.21602548655022E-014                       0      0.0413751862943172       0.996550738811493                       0                       0                       0                       4 
                 0.5201     0.00375093773443361        1.93917838848319         1.7232230612003    -0.00209757215562347         7.3275205740151        2.62474429604226        1.89494787422424   1.33670319257817E-009                       0                       0                       0                       0    1.3366909801249E-009   1.21602548655022E-014                       0      0.0413751862943172       0.996550738811493                       0                       0                       0                       4 
                 0.5201     0.00400100025006252        1.93929936869221        1.72369216880971    -0.00228448867274828        7.32796768266749        2.62477533205375        1.89485206832114   1.33670319257817E-009                       0                       0                       0                       0    1.3366909801249E-009   1.21602548655022E-014                       0      0.0413751862943172       0.996550738811493                       0                       0                       0                       4 
                 0.5201     0.00425106276569142        1.93939915390916        1.72405684809535    -0.00245865619768662        7.32834391174769        2.62481182815254        1.89478095413893   1.33670319257817E-009                       0                       0                       0                       0    1.3366909801249E-009   1.21602548655022E-014                       0      0.0413751862943172       0.996550738811493                       0                       0                       0                       4 
                 0.5201     0.00450112528132033         1.9394989391261        1.72442152738099    -0.00263282372262496        7.32872014082789        2.62484832425134        1.89470983995671   1.33670319257817E-009                       0                       0                       0                       0    1.3366909801249E-009   1.21602548655022E-014                       0      0.0413751862943172       0.996550738811493                       0                       0                       0                       4 
                 0.5201     0.00475118779694924        1.93959872434305        1.72478620666663     -0.0028069912475633        7.32909636990809        2.62488482035013         1.8946387257745   1.33670319257817E-009                       0                       0                       0                       0    1.3366909801249E-009   1.21602548655022E-014                       0      0.0413751862943172       0.996550738811493                       0                       0                       0                       4 
                 0.5201     0.00500125031257814        1.93966165345514        1.72504588250793    -0.00314233674642223        7.32939316741331        2.62492079913528        1.89460322316699   1.33670319257817E-009                       0                       0                       0                       0    1.3366909801249E-009   1.21602548655022E-014                       0      0.0413751862943172       0.996550738811493                       0                       0                       0                       4 
                 0.5201     0.00525131282820705        1.93971270419806        1.72523477964679    -0.00344108512272951        7.32964319398253        2.62496148948831        1.89458272148912   1.33670319257817E-009                       0                       0                       0                       0    1.3366909801249E-009   1.21602548655022E-014                       0      0.0413751862943172       0.996550738811493                       0                       0                       0                       4 
                 0.5201     0.00550137534383596        1.93976375494097        1.72542367678566    -0.00373983349903679        7.32989322055175        2.62500217984134        1.89456221981124   1.33670319257817E-009                       0                       0                       0                       0    1.3366909801249E-009   1.21602548655022E-014                       0      0.0413751862943172       0.996550738811493                       0                       0                       0                       4 
                 0.5201     0.00575143785946487        1.93985723055609        1.72585269878018    -0.00417915850241397        7.33000596185123        2.62490899157864        1.89440358754047   2.04656513957957E-009                       0                       0                       0                       0   2.04654937441262E-009   1.55801427667449E-014                       0       0.023938562721014       0.994968056678772                       0                       0                       0                       4 
                 0.5201     0.00600150037509377        1.93989365172954        1.72614800395584    -0.00448531083209211        7.33028662590737        2.62492158008081        1.89437711395827   2.04656513957957E-009                       0                       0                       0                       0   2.04654937441262E-009   1.55801427667449E-014                       0       0.023938562721014       0.994968056678772                       0                       0                       0                       4 
                 0.5201     0.00625156289072268        1.93991387169508        1.72639740439768    -0.00475062219678256        7.33052288024159        2.62493028155205        1.89436365484808   2.04656513957957E-009                       0                       0                       0                       0   2.04654937441262E-009   1.55801427667449E-014                       0       0.023938562721014       0.994968056678772                       0                       0                       0                       4 
                 0.5201     0.00650162540635159        1.93993409166062        1.72664680483953    -0.00501593356147302        7.33075913457581        2.62493898302329        1.89435019573789   2.04656513957957E-009                       0                       0                       0                       0   2.04654937441262E-009   1.55801427667449E-014                       0       0.023938562721014       0.994968056678772                       0                       0                       0                       4 
                 0.5201     0.00675168792198049        1.93999694377045        1.72701080979755    -0.00538374608332393        7.33109780825143        2.62495426129655        1.89429987248762   2.04656513957957E-009                       0                       0                       0                       0   2.04654937441262E-009   1.55801427667449E-014                       0       0.023938562721014       0.994968056678772                       0                       0                       0                       4 
                 0.5201      0.0070017504376094        1.94008196958846        1.72742565554372    -0.00579781056633864         7.3314692301195        2.62496806535205        1.89422680286403   2.04656513957957E-009                       0                       0                       0                       0   2.04654937441262E-009   1.55801427667449E-014                       0       0.023938562721014       0.994968056678772                       0                       0                       0                       4 
                 0.5201     0.00725181295323831        1.94016313119261        1.72782955424793    -0.00620213390275185        7.33183005965005        2.62498096106393         1.8941568467571   2.04656513957957E-009                       0                       0                       0                       0   2.04654937441262E-009   1.55801427667449E-014                       0       0.023938562721014       0.994968056678772                       0                       0                       0                       4 
                 0.5201     0.00750187546886722        1.94024429279677        1.72823345295215    -0.00660645723916505         7.3321908891806        2.62499385677582        1.89408689065016   2.04656513957957E-009                       0                       0                       0                       0   2.04654937441262E-009   1.55801427667449E-014                       0       0.023938562721014       0.994968056678772                       0                       0                       0                       4 
                 0.5201     0.00775193798449612        1.94038361678386        1.72879247868149    -0.00714963387363933        7.33268851116615        2.62501477404343        1.89396601668121   2.04656513957957E-009                       0                       0                       0                       0   2.04654937441262E-009   1.55801427667449E-014                       0       0.023938562721014       0.994968056678772                       0                       0                       0                       4 
                 0.5201     0.00800200050012503        1.94052572001675        1.72935087552612    -0.00769296917431945        7.33317379057642        2.62503155098899         1.8938394696833   2.04656513957957E-009                       0                       0                       0                       0   2.04654937441262E-009   1.55801427667449E-014                       0       0.023938562721014       0.994968056678772                       0                       0                       0                       4 
                 0.5201     0.00825206301575394        1.94066782324963        1.72990927237076    -0.00823630447499956        7.33365906998669        2.62504832793455        1.89371292268538   2.04656513957957E-009                       0                       0                       0                       0   2.04654937441262E-009   1.55801427667449E-014                       0       0.023938562721014       0.994968056678772                       0                       0                       0                       4 
                 0.5201     0.00850212553138285        1.94080992648251        1.73046766921539    -0.00877963977567967        7.33414434939696         2.6250651048801        1.89358637568746   2.04656513957957E-009                       0                       0                       0                       0   2.04654937441262E-009   1.55801427667449E-014                       0       0.023938562721014       0.994968056678772                       0                       0                       0                       4 
                 0.5201     0.00875218804701175        1.94093355555422         1.7293988933115    -0.00905220720072848          7.333939577485        2.62538250754829        1.89369484104618   5.28861177073736E-009   1.88202676554283E-007   1.88202676554283E-007                       0   1.78792536331684E-009   3.50061002407642E-009   7.64088567265821E-014                       0     0.00771086011081934       0.995280385017395                       1                       0                       0                       4 
                 0.5201     0.00900225056264066        1.94116257941727        1.73043984542484     -0.0100121185886508        7.33475789098445        2.62537318007649        1.89346469037446   5.28861177073736E-009   1.88202676554283E-007   1.88202676554283E-007                       0   1.78792536331684E-009   3.50061002407642E-009   7.64088567265821E-014                       0     0.00771086011081934       0.995280385017395                       1                       0                       0                       4 
                 0.5201     0.00925231307826957        1.94139160328031        1.73148079753819     -0.0109720299765732         7.3355762044839        2.62536385260468        1.89323453970274   5.28861177073736E-009   1.88202676554283E-007   1.88202676554283E-007                       0   1.78792536331684E-009   3.50061002407642E-009   7.64088567265821E-014                       0     0.00771086011081934       0.995280385017395                       1                       0                       0                       4 
                 0.5201     0.00950237559389847        1.94162062714336        1.73252174965153     -0.0119319413644956        7.33639451798336        2.62535452513288        1.89300438903102   5.28861177073736E-009   1.88202676554283E-007   1.88202676554283E-007                       0   1.78792536331684E-009   3.50061002407642E-009   7.64088567265821E-014                       0     0.00771086011081934       0.995280385017395                       1                       0                       0                       4 
                 0.5201     0.00975243810952738        1.94191580689298        1.73368826920952     -0.0129150710486653        7.33733081906478        2.62535614646036        1.89271802627592   5.28861177073736E-009   1.88202676554283E-007   1.88202676554283E-007                       0   1.78792536331684E-009   3.50061002407642E-009   7.64088567265821E-014                       0     0.00771086011081934       0.995280385017395                       1                       0                       0                       4 
                 0.5201      0.0100025006251563        1.94219293949738          1.734855456336     -0.0138800479059329        7.33825167305409        2.62534907259899        1.89244286558863   5.28861177073736E-009   1.88202676554283E-007   1.88202676554283E-007                       0   1.78792536331684E-009   3.50061002407642E-009   7.64088567265821E-014                       0     0.00771086011081934       0.995280385017395                       1                       0                       0                       4 
                 0.5201      0.0102525631407852        1.94247007210177        1.73602264346248     -0.0148450247632005        7.33917252704339        2.62534199873762        1.89216770490135   5.28861177073736E-009   1.88202676554283E-007   1.88202676554283E-007                       0   1.78792536331684E-009   3.50061002407642E-009   7.64088567265821E-014                       0     0.00771086011081934       0.995280385017395                       1                       0                       0                       4 
                 0.5201      0.0105026256564141        1.94275814714174        1.73720585875889     -0.0158154498054133        7.34011061363157        2.62533748594221        1.89188381541302   5.28861177073736E-009   1.88202676554283E-007   1.88202676554283E-007                       0   1.78792536331684E-009   3.50061002407642E-009   7.64088567265821E-014                       0     0.00771086011081934       0.995280385017395                       1                       0                       0                       4 
                 0.5201       0.010752688172043        1.94309968986508        1.73850674914546     -0.0167991656869314        7.34115162420042        2.62533895435873        1.89155257091165   5.28861177073736E-009   1.88202676554283E-007   1.88202676554283E-007                       0   1.78792536331684E-009   3.50061002407642E-009   7.64088567265821E-014                       0     0.00771086011081934       0.995280385017395                       1                       0                       0                       4 
                 0.5201      0.0110027506876719        1.94342493098686        1.73980017026715     -0.0177692073193908        7.34217476747719        2.62533388371473        1.89123236913358   5.28861177073736E-009   1.88202676554283E-007   1.88202676554283E-007                       0   1.78792536331684E-009   3.50061002407642E-009   7.64088567265821E-014                       0     0.00771086011081934       0.995280385017395                       1                       0                       0                       4 
                 0.5201      0.0112528132033008        1.94375017210864        1.74109359138883     -0.0187392489518503        7.34319791075395        2.62532881307074        1.89091216735552   5.28861177073736E-009   1.88202676554283E-007   1.88202676554283E-007                       0   1.78792536331684E-009   3.50061002407642E-009   7.64088567265821E-014                       0     0.00771086011081934       0.995280385017395                       1                       0                       0                       4 
                 0.5201      0.0115028757189297        1.94405179788044        1.74159371040681     -0.0189565442161909        7.34458850155905        2.62575305821501         1.8909244071386   1.43265301844053E-008   3.20236246409422E-008   3.20236246409422E-008                       0   3.04224451186386E-010   1.40219276190123E-008   2.71238841933683E-013   1.07352555935459E-013      0.0151265254244208       0.996073603630066                       1                       0                       0                       4 
                 0.5201      0.0117529382345586        1.94450571682548        1.74295705101327     -0.0203290666124073         7.3457525262132        2.62579671109625        1.89051464279917   1.43265301844053E-008   3.20236246409422E-008   3.20236246409422E-008                       0   3.04224451186386E-010   1.40219276190123E-008   2.71238841933683E-013   1.07352555935459E-013      0.0151265254244208       0.996073603630066                       1                       0                       0                       4 
                 0.5201      0.0120030007501875        1.94496423450357        1.74434424774855     -0.0217263738244667        7.34693968291294        2.62584190868839         1.8901014479143   1.43265301844053E-008   3.20236246409422E-008   3.20236246409422E-008                       0   3.04224451186386E-010   1.40219276190123E-008   2.71238841933683E-013   1.07352555935459E-013      0.0151265254244208       0.996073603630066                       1                       0                       0                       4 
                 0.5201      0.0122530632658165        1.94542275218165        1.74573144448383     -0.0231236810365262        7.34812683961267        2.62588710628052        1.88968825302944   1.43265301844053E-008   3.20236246409422E-008   3.20236246409422E-008                       0   3.04224451186386E-010   1.40219276190123E-008   2.71238841933683E-013   1.07352555935459E-013      0.0151265254244208       0.996073603630066                       1                       0                       0                       4 
                 0.5201      0.0125031257814454        1.94587818334466        1.74704756637643     -0.0243307477555772        7.34923844657409        2.62592646183723        1.88927449851454   1.43265301844053E-008   3.20236246409422E-008   3.20236246409422E-008                       0   3.04224451186386E-010   1.40219276190123E-008   2.71238841933683E-013   1.07352555935459E-013      0.0151265254244208       0.996073603630066                       1                       0                       0                       4 
                 0.5201      0.0127531882970743        1.94636699920761        1.74847920809734     -0.0255360139072628        7.35045514954038        2.62597128378227        1.88883238261109   1.43265301844053E-008   3.20236246409422E-008   3.20236246409422E-008                       0   3.04224451186386E-010   1.40219276190123E-008   2.71238841933683E-013   1.07352555935459E-013      0.0151265254244208       0.996073603630066                       1                       0                       0                       4 
                 0.5201      0.0130032508127032        1.94685581507055        1.74991084981824     -0.0267412800589483        7.35167185250667        2.62601610572732        1.88839026670765   1.43265301844053E-008   3.20236246409422E-008   3.20236246409422E-008                       0   3.04224451186386E-010   1.40219276190123E-008   2.71238841933683E-013   1.07352555935459E-013      0.0151265254244208       0.996073603630066                       1                       0                       0                       4 
                 0.5201      0.0132533133283321         1.9473446309335        1.75134249153915     -0.0279465462106339        7.35288855547296        2.62606092767236         1.8879481508042   1.43265301844053E-008   3.20236246409422E-008   3.20236246409422E-008                       0   3.04224451186386E-010   1.40219276190123E-008   2.71238841933683E-013   1.07352555935459E-013      0.0151265254244208       0.996073603630066                       1                       0                       0                       4 
                 0.5201       0.013503375843961        1.94783615202098        1.75271155572032     -0.0289248109942362        7.35403550144916        2.62610047673091        1.88750050559641   1.43265301844053E-008   3.20236246409422E-008   3.20236246409422E-008                       0   3.04224451186386E-010   1.40219276190123E-008   2.71238841933683E-013   1.07352555935459E-013      0.0151265254244208       0.996073603630066                       1                       0                       0                       4 