VARIABLES = "x"
 "y"
 "rho"
 "rhoU"
 "rhoV"
 "rhoE"
 "P"
 "T"
 "ABV"
 "error"
 "error_hMLP"
 "error_BD"
 "ABV_P"
 "ABV_I"
 "ABV_I_BD"
 "ABV_D"
 "Ducros"
 "Sk"
 "trouble_vertex"
 "trouble_face"
 "hMLP_penalty"
 "BD_penalty"
ZONE
DT=(DOUBLE,DOUBLE,DOUBLE,DOUBLE,DOUBLE,DOUBLE,DOUBLE,DOUBLE,DOUBLE,DOUBLE,DOUBLE,DOUBLE,DOUBLE,DOUBLE,DOUBLE,DOUBLE,DOUBLE,DOUBLE,DOUBLE,DOUBLE,DOUBLE,DOUBLE)
                 1.0501                       0         1.8751162250451         1.8318122753946  -2.10075485908766E-005        7.10367455529645        2.48356818995436         1.8542825917754   8.33263313246787E-034                       0                       0                       0                       0   8.33263313246787E-034                       0                       0        0.93248325586319       0.998445749282837                       0                       0                       0                       3 
                 1.0501    0.000250062515628907        1.87510458134693        1.83200974875959    0.000759188105200219        7.10380526519853        2.48354077092317        1.85427367120019   8.33263313246787E-034                       0                       0                       0                       0   8.33263313246787E-034                       0                       0        0.93248325586319       0.998445749282837                       0                       0                       0                       3 
                 1.0501    0.000500125031257815        1.87509293764875        1.83220722212459     0.00153938375899131        7.10393597510061        2.48351335189199        1.85426475062498   8.33263313246787E-034                       0                       0                       0                       0   8.33263313246787E-034                       0                       0        0.93248325586319       0.998445749282837                       0                       0                       0                       3 
                 1.0501    0.000750187546886722        1.87508305816524        1.83240713489752     0.00233231789926446        7.10407670399955        2.48348933060757        1.85425659236474   8.33263313246787E-034                       0                       0                       0                       0   8.33263313246787E-034                       0                       0        0.93248325586319       0.998445749282837                       0                       0                       0                       3 
                 1.0501     0.00100025006251563        1.87507739505394        1.83260034856323     0.00312301516310491        7.10418617299837        2.48345615304099         1.8542374188938   8.33263313246787E-034                       0                       0                       0                       0   8.33263313246787E-034                       0                       0        0.93248325586319       0.998445749282837                       0                       0                       0                       3 
                 1.0501     0.00125031257814454        1.87508628432889        1.83276076241576     0.00388074656266013        7.10414510705212        2.48337802758228        1.85417031112799   8.33263313246787E-034                       0                       0                       0                       0   8.33263313246787E-034                       0                       0        0.93248325586319       0.998445749282837                       0                       0                       0                       3 
                 1.0501     0.00150037509377344        1.87509517360384        1.83292117626829     0.00463847796221535        7.10410404110588        2.48329990212356        1.85410320336217   8.33263313246787E-034                       0                       0                       0                       0   8.33263313246787E-034                       0                       0        0.93248325586319       0.998445749282837                       0                       0                       0                       3 
                 1.0501     0.00175043760940235        1.87510628465431        1.83308475615094     0.00541245224405811        7.10407575036889        2.48322599803834        1.85403706762314   8.33263313246787E-034                       0                       0                       0                       0   8.33263313246787E-034                       0                       0        0.93248325586319       0.998445749282837                       0                       0                       0                       3 
                 1.0501     0.00200050012503126        1.87512455649784        1.83323319559234     0.00617288065791887        7.10397780449472        2.48313137143368        1.85394837054017   8.33263313246787E-034                       0                       0                       0                       0   8.33263313246787E-034                       0                       0        0.93248325586319       0.998445749282837                       0                       0                       0                       3 
                 1.0501     0.00225056264066016        1.87515391614539        1.83335658123266     0.00690814782138718        7.10376496270015        2.48300247694691        1.85382310688401   8.33263313246787E-034                       0                       0                       0                       0   8.33263313246787E-034                       0                       0        0.93248325586319       0.998445749282837                       0                       0                       0                       3 
                 1.0501     0.00250062515628907        1.87518347535232        1.83348024527066     0.00764485590067965        7.10355325420583        2.48287396186935        1.85369792699352   8.33263313246787E-034                       0                       0                       0                       0   8.33263313246787E-034                       0                       0        0.93248325586319       0.998445749282837                       0                       0                       0                       3 
                 1.0501     0.00275068767191798        1.87521537032125        1.83360716784081     0.00839842931693464        7.10335481053265        2.48274988762322        1.85357372754633   8.33263313246787E-034                       0                       0                       0                       0   8.33263313246787E-034                       0                       0        0.93248325586319       0.998445749282837                       0                       0                       0                       3 
                 1.0501     0.00300075018754689        1.87518422774345        1.83351682556809     0.00911028357834462        7.10279465354217        2.48255395357233        1.85345809095264   8.28589363788268E-010                       0                       0                       0                       0   8.28589363788268E-010                       0                       0       0.970610797405243       0.996908903121948                       0                       0                       0                       4 
                 1.0501     0.00325081270317579        1.87513815375498        1.83351501015279       0.009819587906501        7.10236609032873        2.48237291284588        1.85336847829707   8.28589363788268E-010                       0                       0                       0                       0   8.28589363788268E-010                       0                       0       0.970610797405243       0.996908903121948                       0                       0                       0                       4 
                 1.0501      0.0035008752188047        1.87509438810771        1.83351635708037      0.0105339016997142        7.10195027795244        2.48219615058336        1.85327977883142   8.28589363788268E-010                       0                       0                       0                       0   8.28589363788268E-010                       0                       0       0.970610797405243       0.996908903121948                       0                       0                       0                       4 
                 1.0501     0.00375093773443361        1.87505685909128        1.83352624796377      0.0112617499670363        7.10156891553698        2.48203094779045        1.85319354660436   8.28589363788268E-010                       0                       0                       0                       0   8.28589363788268E-010                       0                       0       0.970610797405243       0.996908903121948                       0                       0                       0                       4 
                 1.0501     0.00400100025006252        1.87496255212037        1.83347420796623      0.0119284817245273        7.10097041164318        2.48179216615897        1.85310846481224   8.28589363788268E-010                       0                       0                       0                       0   8.28589363788268E-010                       0                       0       0.970610797405243       0.996908903121948                       0                       0                       0                       4 
                 1.0501     0.00425106276569142        1.87485087280605        1.83340321898504      0.0125765136713911        7.10030546899928        2.48153087161974        1.85302373501855   8.28589363788268E-010                       0                       0                       0                       0   8.28589363788268E-010                       0                       0       0.970610797405243       0.996908903121948                       0                       0                       0                       4 
                 1.0501     0.00450112528132033        1.87474313757929        1.83333760436493       0.013233104911313        7.09966225495501        2.48127688736736        1.85294055107604   8.28589363788268E-010                       0                       0                       0                       0   8.28589363788268E-010                       0                       0       0.970610797405243       0.996908903121948                       0                       0                       0                       4 
                 1.0501     0.00475118779694924        1.87464000323493        1.83327825907907      0.0138996807928091        7.09904438789652         2.4810314307578        1.85285917040977   8.28589363788268E-010                       0                       0                       0                       0   8.28589363788268E-010                       0                       0       0.970610797405243       0.996908903121948                       0                       0                       0                       4 
                 1.0501     0.00500125031257814        1.87446589642475        1.83314150020404      0.0144898615562423        7.09815521357826        2.48069406040861        1.85277928764585   8.28589363788268E-010                       0                       0                       0                       0   8.28589363788268E-010                       0                       0       0.970610797405243       0.996908903121948                       0                       0                       0                       4 
                 1.0501     0.00525131282820705        1.87428861168663        1.83300127498745      0.0150766215821115        7.09725389095841        2.48035257444589        1.85269947195337   8.28589363788268E-010                       0                       0                       0                       0   8.28589363788268E-010                       0                       0       0.970610797405243       0.996908903121948                       0                       0                       0                       4 
                 1.0501     0.00550137534383596        1.87411688635323        1.83286869395235      0.0156754909099364        7.09638339033238        2.48002143061106        1.85262186367159   8.28589363788268E-010                       0                       0                       0                       0   8.28589363788268E-010                       0                       0       0.970610797405243       0.996908903121948                       0                       0                       0                       4 
                 1.0501     0.00575143785946487        1.87392284849632        1.83267248560524       0.016237391975515        7.09536470417921        2.47965171545949        1.85253747626185   9.97841338569538E-034                       0                       0                       0                       0   9.97841338569538E-034                       0                       0       0.973754942417145       0.996761023998261                       0                       0                       0                       4 
                 1.0501     0.00600150037509377        1.87364843914972        1.83222676995615      0.0167459086543818        7.09398286046601        2.47921895811649        1.85248545523595   9.97841338569538E-034                       0                       0                       0                       0   9.97841338569538E-034                       0                       0       0.973754942417145       0.996761023998261                       0                       0                       0                       4 
                 1.0501     0.00625156289072268        1.87337402980312        1.83178105430707      0.0172544253332485        7.09260101675281        2.47878620077349        1.85243343421005   9.97841338569538E-034                       0                       0                       0                       0   9.97841338569538E-034                       0                       0       0.973754942417145       0.996761023998261                       0                       0                       0                       4 
                 1.0501     0.00650162540635159        1.87311307370137        1.83135325869729      0.0177835612903827        7.09129286193282         2.4783783940457        1.85238672576218   9.97841338569538E-034                       0                       0                       0                       0   9.97841338569538E-034                       0                       0       0.973754942417145       0.996761023998261                       0                       0                       0                       4 
                 1.0501     0.00675168792198049        1.87282710766994        1.83088965493632      0.0182674924212066        7.08982256122393        2.47791507765422        1.85232321317767   9.97841338569538E-034                       0                       0                       0                       0   9.97841338569538E-034                       0                       0       0.973754942417145       0.996761023998261                       0                       0                       0                       4 
                 1.0501      0.0070017504376094        1.87248778142596        1.83035013215543      0.0186562985257271         7.0880111519082         2.4773350836222        1.85222518072714   9.97841338569538E-034                       0                       0                       0                       0   9.97841338569538E-034                       0                       0       0.973754942417145       0.996761023998261                       0                       0                       0                       4 
                 1.0501     0.00725181295323831        1.87214902640797        1.82981137026104      0.0190459801266772        7.08620287591857        2.47675614899558        1.85212737609366   9.97841338569538E-034                       0                       0                       0                       0   9.97841338569538E-034                       0                       0       0.973754942417145       0.996761023998261                       0                       0                       0                       4 
                 1.0501     0.00750187546886722        1.87182563200221        1.82929306906428      0.0194592043555487        7.08447885696104        2.47620570241992        1.85203569759826   9.97841338569538E-034                       0                       0                       0                       0   9.97841338569538E-034                       0                       0       0.973754942417145       0.996761023998261                       0                       0                       0                       4 
                 1.0501     0.00775193798449612        1.87145928894717        1.82871363839962      0.0197958342968043        7.08248011302615         2.4755613077532        1.85191617400647   9.97841338569538E-034                       0                       0                       0                       0   9.97841338569538E-034                       0                       0       0.973754942417145       0.996761023998261                       0                       0                       0                       4 
                 1.0501     0.00800200050012503        1.87105507724024        1.82808030870487      0.0200649295783422        7.08023913878353        2.47483407724377        1.85177209885648   9.97841338569538E-034                       0                       0                       0                       0   9.97841338569538E-034                       0                       0       0.973754942417145       0.996761023998261                       0                       0                       0                       4 
                 1.0501     0.00825206301575394        1.87065448658383        1.82745180944882      0.0203395745955457        7.07801802696337         2.4741135623958        1.85162946074421   9.97841338569538E-034                       0                       0                       0                       0   9.97841338569538E-034                       0                       0       0.973754942417145       0.996761023998261                       0                       0                       0                       4 
                 1.0501     0.00850212553138285        1.87026620671512        1.82683973263846      0.0206330875123677        7.07586444307894        2.47341587934273        1.85149170824908   9.97841338569538E-034                       0                       0                       0                       0   9.97841338569538E-034                       0                       0       0.973754942417145       0.996761023998261                       0                       0                       0                       4 
                 1.0501     0.00875218804701175        1.86983448955747        1.82619915700392      0.0208472360458053         7.0734719530435        2.47262580294271        1.85132748862633   6.68449724825632E-013                       0                       0                       0                       0   6.68449724825632E-013                       0                       0       0.572273373603821       0.996839106082916                       0                       0                       0                       4 
                 1.0501     0.00900225056264066        1.86932673704875        1.82547283491263      0.0209629197800992         7.0707047613414         2.4717052628563        1.85114084528953   6.68449724825632E-013                       0                       0                       0                       0   6.68449724825632E-013                       0                       0       0.572273373603821       0.996839106082916                       0                       0                       0                       4 
                 1.0501     0.00925231307826957        1.86882435790224        1.82475355061527      0.0210860871089932          7.067966821699        2.47079468314865         1.8509563250861   6.68449724825632E-013                       0                       0                       0                       0   6.68449724825632E-013                       0                       0       0.572273373603821       0.996839106082916                       0                       0                       0                       4 
                 1.0501     0.00950237559389847        1.86832943849231        1.82404403675337       0.021219643769937        7.06526949213472        2.46989793124537        1.85077475238834   6.68449724825632E-013                       0                       0                       0                       0   6.68449724825632E-013                       0                       0       0.572273373603821       0.996839106082916                       0                       0                       0                       4 
                 1.0501     0.00975243810952738        1.86776154440855        1.82325785638819       0.021237178676803        7.06216945687124        2.46885654647557        1.85055674964726   6.68449724825632E-013                       0                       0                       0                       0   6.68449724825632E-013                       0                       0       0.572273373603821       0.996839106082916                       0                       0                       0                       4 
                 1.0501      0.0100025006251563        1.86718680882216        1.82246448840495      0.0212438363423772        7.05903166724787         2.4678016021229        1.85033533152624   6.68449724825632E-013                       0                       0                       0                       0   6.68449724825632E-013                       0                       0       0.572273373603821       0.996839106082916                       0                       0                       0                       4 
                 1.0501      0.0102525631407852        1.86661988412348        1.82168139489015      0.0212613992915066        7.05593650330023        2.46676117188921        1.85011704539932   6.68449724825632E-013                       0                       0                       0                       0   6.68449724825632E-013                       0                       0       0.572273373603821       0.996839106082916                       0                       0                       0                       4 
                 1.0501      0.0105026256564141        1.86604950941887        1.82089600529714      0.0212725154527315        7.05282202668925        2.46571329932789        1.84989652185941   6.68449724825632E-013                       0                       0                       0                       0   6.68449724825632E-013                       0                       0       0.572273373603821       0.996839106082916                       0                       0                       0                       4 
                 1.0501       0.010752688172043         1.8654077286508        1.82003565473276      0.0211701479145937        7.04931376705169        2.46452401420969        1.84964014133506   6.68449724825632E-013                       0                       0                       0                       0   6.68449724825632E-013                       0                       0       0.572273373603821       0.996839106082916                       0                       0                       0                       4 
                 1.0501      0.0110027506876719        1.86476594788273        1.81917530416838      0.0210677803764559        7.04580550741413        2.46333472909149        1.84938376081071   6.68449724825632E-013                       0                       0                       0                       0   6.68449724825632E-013                       0                       0       0.572273373603821       0.996839106082916                       0                       0                       0                       4 
                 1.0501      0.0112528132033008        1.86413447882586        1.81832840148042       0.020979739625027        7.04235324714251         2.4621644616791        1.84913152002443   6.68449724825632E-013                       0                       0                       0                       0   6.68449724825632E-013                       0                       0       0.572273373603821       0.996839106082916                       0                       0                       0                       4 
                 1.0501      0.0115028757189297          1.863547744413        1.81753515275772      0.0209528524656114        7.03912403947192        2.46107075309788        1.84889221165331   2.31022604730691E-033                       0                       0                       0                       0   2.31022604730691E-033                       0                       0       0.999573111534119       0.997375428676605                       0                       0                       0                       4 
                 1.0501      0.0117529382345586        1.86285015526074        1.81661170084587       0.020772536980887        7.03533670661313        2.45978406153458        1.84861733266847   2.31022604730691E-033                       0                       0                       0                       0   2.31022604730691E-033                       0                       0       0.999573111534119       0.997375428676605                       0                       0                       0                       4 
                 1.0501      0.0120030007501875        1.86215256610847        1.81568824893403      0.0205922214961625        7.03154937375434        2.45849736997128        1.84834245368363   2.31022604730691E-033                       0                       0                       0                       0   2.31022604730691E-033                       0                       0       0.999573111534119       0.997375428676605                       0                       0                       0                       4 
                 1.0501      0.0122530632658165        1.86144409856479        1.81475168079025      0.0203976252088414        7.02770373271753        2.45719060000553        1.84806331658557   2.31022604730691E-033                       0                       0                       0                       0   2.31022604730691E-033                       0                       0       0.999573111534119       0.997375428676605                       0                       0                       0                       4 
                 1.0501      0.0125031257814454        1.86076181179124        1.81384924511257       0.020235587257264        7.02400051386214        2.45593225790979        1.84779421202846   2.31022604730691E-033                       0                       0                       0                       0   2.31022604730691E-033                       0                       0       0.999573111534119       0.997375428676605                       0                       0                       0                       4 
                 1.0501      0.0127531882970743        1.86010701075052        1.81298263534133      0.0201077360433663         7.0204468097054        2.45472475721434        1.84753564073796   2.31022604730691E-033                       0                       0                       0                       0   2.31022604730691E-033                       0                       0       0.999573111534119       0.997375428676605                       0                       0                       0                       4 
                 1.0501      0.0130032508127032        1.85945018353868        1.81211358954669      0.0199772326053791        7.01688229930266        2.45351351589528        1.84727627860573   2.31022604730691E-033                       0                       0                       0                       0   2.31022604730691E-033                       0                       0       0.999573111534119       0.997375428676605                       0                       0                       0                       4 
                 1.0501      0.0132533133283321        1.85878439611338        1.81123377107376      0.0198350003979627        7.01327000109486        2.45228573264369        1.84701341918221   2.31022604730691E-033                       0                       0                       0                       0   2.31022604730691E-033                       0                       0       0.999573111534119       0.997375428676605                       0                       0                       0                       4 
                 1.0501       0.013503375843961        1.85815515312104        1.81040162849891      0.0197382237116581        7.00985640925573        2.45112554701781        1.84676471353983   2.31022604730691E-033                       0                       0                       0                       0   2.31022604730691E-033                       0                       0       0.999573111534119       0.997375428676605                       0                       0                       0                       4 