VARIABLES = "x"
 "y"
 "rho"
 "rhoU"
 "rhoV"
 "rhoE"
 "P"
 "T"
 "ABV"
 "error"
 "error_hMLP"
 "error_BD"
 "ABV_P"
 "ABV_I"
 "ABV_I_BD"
 "ABV_D"
 "Ducros"
 "Sk"
 "trouble_vertex"
 "trouble_face"
 "hMLP_penalty"
 "BD_penalty"
ZONE
DT=(DOUBLE,DOUBLE,DOUBLE,DOUBLE,DOUBLE,DOUBLE,DOUBLE,DOUBLE,DOUBLE,DOUBLE,DOUBLE,DOUBLE,DOUBLE,DOUBLE,DOUBLE,DOUBLE,DOUBLE,DOUBLE,DOUBLE,DOUBLE,DOUBLE,DOUBLE)
                 0.5201                       0        1.93657252591018        1.72437491132147  -3.05953548259559E-005        7.30536903597672        2.61506171919037        1.89049793205631   1.10638737754742E-011                       0                       0                       0                       0   8.94808879770004E-012   2.11578454409334E-012                       0       0.404934078454971       0.997010350227356                       0                       0                       0                       3 
                 0.5201    0.000250062515628907        1.93660645514464        1.72452754905344   -0.000247524367433807        7.30545934134952        2.61504882338754         1.8904554846036   1.10638737754742E-011                       0                       0                       0                       0   8.94808879770004E-012   2.11578454409334E-012                       0       0.404934078454971       0.997010350227356                       0                       0                       0                       3 
                 0.5201    0.000500125031257815        1.93663708468861        1.72467703017093   -0.000430877838428695        7.30554492521398        2.61503469355412         1.8904153531938   1.10638737754742E-011                       0                       0                       0                       0   8.94808879770004E-012   2.11578454409334E-012                       0       0.404934078454971       0.997010350227356                       0                       0                       0                       3 
                 0.5201    0.000750187546886722        1.93666771423258        1.72482651128843   -0.000614231309423583        7.30563050907843        2.61502056372069        1.89037522178401   1.10638737754742E-011                       0                       0                       0                       0   8.94808879770004E-012   2.11578454409334E-012                       0       0.404934078454971       0.997010350227356                       0                       0                       0                       3 
                 0.5201     0.00100025006251563        1.93669834377654        1.72497599240592   -0.000797584780418471        7.30571609294289        2.61500643388727        1.89033509037421   1.10638737754742E-011                       0                       0                       0                       0   8.94808879770004E-012   2.11578454409334E-012                       0       0.404934078454971       0.997010350227356                       0                       0                       0                       3 
                 0.5201     0.00125031257814454        1.93672897332051        1.72512547352341   -0.000980938251413358        7.30580167680735        2.61499230405385        1.89029495896441   1.10638737754742E-011                       0                       0                       0                       0   8.94808879770004E-012   2.11578454409334E-012                       0       0.404934078454971       0.997010350227356                       0                       0                       0                       3 
                 0.5201     0.00150037509377344        1.93679235378066        1.72538976905477    -0.00120286944965044        7.30601793552876        2.61499456402032        1.89023475719768   1.10638737754742E-011                       0                       0                       0                       0   8.94808879770004E-012   2.11578454409334E-012                       0       0.404934078454971       0.997010350227356                       0                       0                       0                       3 
                 0.5201     0.00175043760940235        1.93686707198207        1.72570641593886    -0.00139371123716508         7.3062921258406        2.61500314923557        1.89016808763555   1.10638737754742E-011                       0                       0                       0                       0   8.94808879770004E-012   2.11578454409334E-012                       0       0.404934078454971       0.997010350227356                       0                       0                       0                       3 
                 0.5201     0.00200050012503126        1.93694179018349        1.72602306282296    -0.00158455302467972        7.30656631615244        2.61501173445081        1.89010141807343   1.10638737754742E-011                       0                       0                       0                       0   8.94808879770004E-012   2.11578454409334E-012                       0       0.404934078454971       0.997010350227356                       0                       0                       0                       3 
                 0.5201     0.00225056264066016         1.9370165083849        1.72633970970705    -0.00177539481219436        7.30684050646427        2.61502031966605         1.8900347485113   1.10638737754742E-011                       0                       0                       0                       0   8.94808879770004E-012   2.11578454409334E-012                       0       0.404934078454971       0.997010350227356                       0                       0                       0                       3 
                 0.5201     0.00250062515628907        1.93709122658632        1.72665635659115    -0.00196623659970899        7.30711469677611         2.6150289048813        1.88996807894918   1.10638737754742E-011                       0                       0                       0                       0   8.94808879770004E-012   2.11578454409334E-012                       0       0.404934078454971       0.997010350227356                       0                       0                       0                       3 
                 0.5201     0.00275068767191798        1.93718352301447        1.72703180789819    -0.00218780003518109        7.30745616512223        2.61504608389792        1.88989049436113   1.10638737754742E-011                       0                       0                       0                       0   8.94808879770004E-012   2.11578454409334E-012                       0       0.404934078454971       0.997010350227356                       0                       0                       0                       3 
                 0.5201     0.00300075018754689        1.93730281430677        1.72751612245971    -0.00239149998275223        7.30791962178882        2.61507756722018        1.88979686437918   1.10638737754742E-011                       0                       0                       0                       0   8.94808879770004E-012   2.11578454409334E-012                       0       0.404934078454971       0.997010350227356                       0                       0                       0                       3 
                 0.5201     0.00325081270317579        1.93742157643024        1.72799993502592    -0.00258983000064062        7.30838232903791        2.61510886747862        1.88970361196635   1.10638737754742E-011                       0                       0                       0                       0   8.94808879770004E-012   2.11578454409334E-012                       0       0.404934078454971       0.997010350227356                       0                       0                       0                       3 
                 0.5201      0.0035008752188047         1.9375403385537        1.72848374759213    -0.00278816001852901          7.308845036287        2.61514016773706        1.88961035955352   1.10638737754742E-011                       0                       0                       0                       0   8.94808879770004E-012   2.11578454409334E-012                       0       0.404934078454971       0.997010350227356                       0                       0                       0                       3 
                 0.5201     0.00375093773443361        1.93765910067716        1.72896756015835     -0.0029864900364174        7.30930774353609         2.6151714679955        1.88951710714068   1.10638737754742E-011                       0                       0                       0                       0   8.94808879770004E-012   2.11578454409334E-012                       0       0.404934078454971       0.997010350227356                       0                       0                       0                       3 
                 0.5201     0.00400100025006252        1.93793120924555        1.72889429699502    -0.00338298868214209        7.30907527162839        2.61514772178752        1.88923470102357   1.51147663829398E-010                       0                       0                       0                       0   1.45974884957489E-010    5.1727697646109E-012                       0      0.0425904169678688       0.995842278003693                       0                       0                       0                       4 
                 0.5201     0.00425106276569142        1.93809981572258         1.7296306868904    -0.00359689231673113        7.30974782324271        2.61518032896687        1.88909398328031   1.51147663829398E-010                       0                       0                       0                       0   1.45974884957489E-010    5.1727697646109E-012                       0      0.0425904169678688       0.995842278003693                       0                       0                       0                       4 
                 0.5201     0.00450112528132033        1.93825620528278        1.73033255071644    -0.00378401810391639        7.31038769017805        2.61521042194014        1.88896330465568   1.51147663829398E-010                       0                       0                       0                       0   1.45974884957489E-010    5.1727697646109E-012                       0      0.0425904169678688       0.995842278003693                       0                       0                       0                       4 
                 0.5201     0.00475118779694924        1.93841259484297        1.73103441454248    -0.00397114389110164        7.31102755711339        2.61524051491341        1.88883262603104   1.51147663829398E-010                       0                       0                       0                       0   1.45974884957489E-010    5.1727697646109E-012                       0      0.0425904169678688       0.995842278003693                       0                       0                       0                       4 
                 0.5201     0.00500125031257814        1.93856898440317        1.73173627836852     -0.0041582696782869        7.31166742404874        2.61527060788668        1.88870194740641   1.51147663829398E-010                       0                       0                       0                       0   1.45974884957489E-010    5.1727697646109E-012                       0      0.0425904169678688       0.995842278003693                       0                       0                       0                       4 
                 0.5201     0.00525131282820705        1.93872537396336        1.73243814219456    -0.00434539546547216        7.31230729098408        2.61530070085995        1.88857126878177   1.51147663829398E-010                       0                       0                       0                       0   1.45974884957489E-010    5.1727697646109E-012                       0      0.0425904169678688       0.995842278003693                       0                       0                       0                       4 
                 0.5201     0.00550137534383596        1.93887618608853         1.7331064006527    -0.00460453489580129        7.31292458328076        2.61533239620858        1.88844730388811   1.51147663829398E-010                       0                       0                       0                       0   1.45974884957489E-010    5.1727697646109E-012                       0      0.0425904169678688       0.995842278003693                       0                       0                       0                       4 
                 0.5201     0.00575143785946487        1.93900592565978        1.73370635953506    -0.00485857334771884        7.31348172788103         2.6153611477317        1.88834173258785   1.51147663829398E-010                       0                       0                       0                       0   1.45974884957489E-010    5.1727697646109E-012                       0      0.0425904169678688       0.995842278003693                       0                       0                       0                       4 
                 0.5201     0.00600150037509377        1.93913566523102        1.73430631841741     -0.0051126117996364        7.31403887248131        2.61538989925481        1.88823616128759   1.51147663829398E-010                       0                       0                       0                       0   1.45974884957489E-010    5.1727697646109E-012                       0      0.0425904169678688       0.995842278003693                       0                       0                       0                       4 
                 0.5201     0.00625156289072268        1.93926540480226        1.73490627729977    -0.00536665025155395        7.31459601708158        2.61541865077792        1.88813058998733   1.51147663829398E-010                       0                       0                       0                       0   1.45974884957489E-010    5.1727697646109E-012                       0      0.0425904169678688       0.995842278003693                       0                       0                       0                       4 
                 0.5201     0.00650162540635159        1.93939514437351        1.73550623618213    -0.00562068870347151        7.31515316168186        2.61544740230103        1.88802501868707   1.51147663829398E-010                       0                       0                       0                       0   1.45974884957489E-010    5.1727697646109E-012                       0      0.0425904169678688       0.995842278003693                       0                       0                       0                       4 
                 0.5201     0.00675168792198049        1.93952629021798        1.73610119329269    -0.00592047017099787        7.31571021506441        2.61547781094611        1.88791933336466   1.51147663829398E-010                       0                       0                       0                       0   1.45974884957489E-010    5.1727697646109E-012                       0      0.0425904169678688       0.995842278003693                       0                       0                       0                       4 
                 0.5201      0.0070017504376094        1.93963116305068        1.73660447649409    -0.00624547684614005        7.31618958232666        2.61550563579778        1.88783734354261   1.51147663829398E-010                       0                       0                       0                       0   1.45974884957489E-010    5.1727697646109E-012                       0      0.0425904169678688       0.995842278003693                       0                       0                       0                       4 
                 0.5201     0.00725181295323831        1.93973418561561         1.7371025306779    -0.00656642798447616        7.31666400481533         2.6155330905959        1.88775687952109   1.51147663829398E-010                       0                       0                       0                       0   1.45974884957489E-010    5.1727697646109E-012                       0      0.0425904169678688       0.995842278003693                       0                       0                       0                       4 
                 0.5201     0.00750187546886722        1.93983720818054         1.7376005848617    -0.00688737912281227        7.31713842730401        2.61556054539402        1.88767641549956   1.51147663829398E-010                       0                       0                       0                       0   1.45974884957489E-010    5.1727697646109E-012                       0      0.0425904169678688       0.995842278003693                       0                       0                       0                       4 
                 0.5201     0.00775193798449612        1.93994023074547         1.7380986390455    -0.00720833026114838        7.31761284979269        2.61558800019214        1.88759595147804   1.51147663829398E-010                       0                       0                       0                       0   1.45974884957489E-010    5.1727697646109E-012                       0      0.0425904169678688       0.995842278003693                       0                       0                       0                       4 
                 0.5201     0.00800200050012503        1.93993163386807        1.73787744187549    -0.00749519808140269        7.31821038682528        2.61590462595477        1.88783270088032   2.62624116897925E-010                       0                       0                       0                       0   2.50275883351136E-010   1.23482378835971E-011                       0       0.038513008505106        0.99647855758667                       0                       0                       0                       4 
                 0.5201     0.00825206301575394        1.94007855823256        1.73846916221879    -0.00808095984692915        7.31876430765782        2.61593633783878        1.88771271298555   2.62624116897925E-010                       0                       0                       0                       0   2.50275883351136E-010   1.23482378835971E-011                       0       0.038513008505106        0.99647855758667                       0                       0                       0                       4 
                 0.5201     0.00850212553138285        1.94021766562118        1.73904875398067    -0.00867638715771398         7.3192935506831        2.61596151220708         1.8875955381505   2.62624116897925E-010                       0                       0                       0                       0   2.50275883351136E-010   1.23482378835971E-011                       0       0.038513008505106        0.99647855758667                       0                       0                       0                       4 
                 0.5201     0.00875218804701175        1.94035677300979        1.73962834574256    -0.00927181446849881        7.31982279370838        2.61598668657539        1.88747836331544   2.62624116897925E-010                       0                       0                       0                       0   2.50275883351136E-010   1.23482378835971E-011                       0       0.038513008505106        0.99647855758667                       0                       0                       0                       4 
                 0.5201     0.00900225056264066        1.94049588039841        1.74020793750444    -0.00986724177928364        7.32035203673366        2.61601186094369        1.88736118848038   2.62624116897925E-010                       0                       0                       0                       0   2.50275883351136E-010   1.23482378835971E-011                       0       0.038513008505106        0.99647855758667                       0                       0                       0                       4 
                 0.5201     0.00925231307826957        1.94063498778702        1.74078752926633     -0.0104626690900685        7.32088127975894        2.61603703531199        1.88724401364532   2.62624116897925E-010                       0                       0                       0                       0   2.50275883351136E-010   1.23482378835971E-011                       0       0.038513008505106        0.99647855758667                       0                       0                       0                       4 
                 0.5201     0.00950237559389847        1.94079232477821        1.74137890122836     -0.0110735831431014        7.32143177438053        2.61606866899723        1.88711393575486   2.62624116897925E-010                       0                       0                       0                       0   2.50275883351136E-010   1.23482378835971E-011                       0       0.038513008505106        0.99647855758667                       0                       0                       0                       4 
                 0.5201     0.00975243810952738        1.94094661269501        1.74195759829231      -0.011706509826132          7.321955204131        2.61609353034536        1.88698189337889   2.62624116897925E-010                       0                       0                       0                       0   2.50275883351136E-010   1.23482378835971E-011                       0       0.038513008505106        0.99647855758667                       0                       0                       0                       4 
                 0.5201      0.0100025006251563         1.9411009006118        1.74253629535625     -0.0123394365091626        7.32247863388147        2.61611839169349        1.88684985100292   2.62624116897925E-010                       0                       0                       0                       0   2.50275883351136E-010   1.23482378835971E-011                       0       0.038513008505106        0.99647855758667                       0                       0                       0                       4 
                 0.5201      0.0102525631407852        1.94125518852859         1.7431149924202     -0.0129723631921931        7.32300206363194        2.61614325304163        1.88671780862695   2.62624116897925E-010                       0                       0                       0                       0   2.50275883351136E-010   1.23482378835971E-011                       0       0.038513008505106        0.99647855758667                       0                       0                       0                       4 
                 0.5201      0.0105026256564141        1.94140947644539        1.74369368948415     -0.0136052898752237         7.3235254933824        2.61616811438976        1.88658576625098   2.62624116897925E-010                       0                       0                       0                       0   2.50275883351136E-010   1.23482378835971E-011                       0       0.038513008505106        0.99647855758667                       0                       0                       0                       4 
                 0.5201       0.010752688172043        1.94157582374177         1.7442827308501       -0.01424263373624        7.32406855038842        2.61619860549929        1.88644618676276   2.62624116897925E-010                       0                       0                       0                       0   2.50275883351136E-010   1.23482378835971E-011                       0       0.038513008505106        0.99647855758667                       0                       0                       0                       4 
                 0.5201      0.0110027506876719        1.94174636249518        1.74486226669885     -0.0149116798081239        7.32458968594499        2.61622404511738         1.8862989037043   2.62624116897925E-010                       0                       0                       0                       0   2.50275883351136E-010   1.23482378835971E-011                       0       0.038513008505106        0.99647855758667                       0                       0                       0                       4 
                 0.5201      0.0112528132033008        1.94191578632267         1.7454400694697     -0.0155821060173014        7.32510730279032        2.61624854874828         1.8861520160629   2.62624116897925E-010                       0                       0                       0                       0   2.50275883351136E-010   1.23482378835971E-011                       0       0.038513008505106        0.99647855758667                       0                       0                       0                       4 
                 0.5201      0.0115028757189297        1.94208521015015        1.74601787224055     -0.0162525322264789        7.32562491963565        2.61627305237917        1.88600512842149   2.62624116897925E-010                       0                       0                       0                       0   2.50275883351136E-010   1.23482378835971E-011                       0       0.038513008505106        0.99647855758667                       0                       0                       0                       4 
                 0.5201      0.0117529382345586        1.94225463397764        1.74659567501139     -0.0169229584356564        7.32614253648098        2.61629755601007        1.88585824078009   2.62624116897925E-010                       0                       0                       0                       0   2.50275883351136E-010   1.23482378835971E-011                       0       0.038513008505106        0.99647855758667                       0                       0                       0                       4 
                 0.5201      0.0120030007501875        1.94250468918731        1.74697293031546     -0.0172815983726725        7.32673725866498        2.61643919151243        1.88571741575375   8.06824884680424E-010                       0                       0                       0                       0   7.70737973443403E-010   3.60869528703844E-011                       0      0.0497732572257519       0.995906949043274                       0                       0                       0                       4 
                 0.5201      0.0122530632658165        1.94274085699796         1.7475843488838     -0.0179916483584951        7.32733080166167        2.61649178542783        1.88552625993389   8.06824884680424E-010                       0                       0                       0                       0   7.70737973443403E-010   3.60869528703844E-011                       0      0.0497732572257519       0.995906949043274                       0                       0                       0                       4 
                 0.5201      0.0125031257814454        1.94299009648447        1.74824362175591     -0.0187346602512673        7.32795609139604        2.61654208941462        1.88532066195058   8.06824884680424E-010                       0                       0                       0                       0   7.70737973443403E-010   3.60869528703844E-011                       0      0.0497732572257519       0.995906949043274                       0                       0                       0                       4 
                 0.5201      0.0127531882970743        1.94323933597098        1.74890289462802     -0.0194776721440394        7.32858138113041         2.6165923934014        1.88511506396727   8.06824884680424E-010                       0                       0                       0                       0   7.70737973443403E-010   3.60869528703844E-011                       0      0.0497732572257519       0.995906949043274                       0                       0                       0                       4 
                 0.5201      0.0130032508127032        1.94348857545749        1.74956216750013     -0.0202206840368116        7.32920667086478        2.61664269738818        1.88490946598395   8.06824884680424E-010                       0                       0                       0                       0   7.70737973443403E-010   3.60869528703844E-011                       0      0.0497732572257519       0.995906949043274                       0                       0                       0                       4 
                 0.5201      0.0132533133283321          1.943737814944        1.75022144037224     -0.0209636959295837        7.32983196059915        2.61669300137496        1.88470386800064   8.06824884680424E-010                       0                       0                       0                       0   7.70737973443403E-010   3.60869528703844E-011                       0      0.0497732572257519       0.995906949043274                       0                       0                       0                       4 
                 0.5201       0.013503375843961        1.94397729436121        1.75080111005849     -0.0216174017716506        7.33043957829101        2.61676306726198        1.88452223403913   8.06824884680424E-010                       0                       0                       0                       0   7.70737973443403E-010   3.60869528703844E-011                       0      0.0497732572257519       0.995906949043274                       0                       0                       0                       4 