VARIABLES = "x"
 "y"
 "rho"
 "rhoU"
 "rhoV"
 "rhoE"
 "P"
 "T"
 "ABV"
 "error"
 "error_hMLP"
 "error_BD"
 "ABV_P"
 "ABV_I"
 "ABV_I_BD"
 "ABV_D"
 "Ducros"
 "Sk"
 "trouble_vertex"
 "trouble_face"
 "hMLP_penalty"
 "BD_penalty"
ZONE
DT=(DOUBLE,DOUBLE,DOUBLE,DOUBLE,DOUBLE,DOUBLE,DOUBLE,DOUBLE,DOUBLE,DOUBLE,DOUBLE,DOUBLE,DOUBLE,DOUBLE,DOUBLE,DOUBLE,DOUBLE,DOUBLE,DOUBLE,DOUBLE,DOUBLE,DOUBLE)
                 1.0501                       0         1.8790638761019        1.83437029405006   6.10048648078314E-005        7.12222906399505        2.49074361028897        1.85573322240955   1.09827668089246E-025                       0                       0                       0                       0   1.09827668089246E-025                       0                       0       0.344906985759735       0.995129346847534                       0                       0                       0                       3 
                 1.0501    0.000250062515628907        1.87898399335694        1.83439812892761    0.000230310689522495        7.12195031278761         2.4906059785571        1.85570956835297   1.09827668089246E-025                       0                       0                       0                       0   1.09827668089246E-025                       0                       0       0.344906985759735       0.995129346847534                       0                       0                       0                       3 
                 1.0501    0.000500125031257815        1.87890411061198        1.83442596380516    0.000399616514237159        7.12167156158018        2.49046834682523        1.85568591429638   1.09827668089246E-025                       0                       0                       0                       0   1.09827668089246E-025                       0                       0       0.344906985759735       0.995129346847534                       0                       0                       0                       3 
                 1.0501    0.000750187546886722        1.87882422786702         1.8344537986827    0.000568922338951822        7.12139281037275        2.49033071509336         1.8556622602398   1.09827668089246E-025                       0                       0                       0                       0   1.09827668089246E-025                       0                       0       0.344906985759735       0.995129346847534                       0                       0                       0                       3 
                 1.0501     0.00100025006251563        1.87874390653284        1.83448027602218    0.000778848710876055        7.12111096815555        2.49019228972385        1.85563843910161   1.09827668089246E-025                       0                       0                       0                       0   1.09827668089246E-025                       0                       0       0.344906985759735       0.995129346847534                       0                       0                       0                       3 
                 1.0501     0.00125031257814454        1.87866355428392        1.83450665767319    0.000991638293768956        7.12082890806307        2.49005380841339        1.85561460618638   1.09827668089246E-025                       0                       0                       0                       0   1.09827668089246E-025                       0                       0       0.344906985759735       0.995129346847534                       0                       0                       0                       3 
                 1.0501     0.00150037509377344        1.87851157522039        1.83441705645466     0.00116650547368988        7.12001750251245        2.48973524450688        1.85552724106318   1.09827668089246E-025                       0                       0                       0                       0   1.09827668089246E-025                       0                       0       0.344906985759735       0.995129346847534                       0                       0                       0                       3 
                 1.0501     0.00175043760940235        1.87832399721025         1.8342698110703      0.0013225249971067        7.11894300916715        2.48932717849484        1.85540830006033   1.09827668089246E-025                       0                       0                       0                       0   1.09827668089246E-025                       0                       0       0.344906985759735       0.995129346847534                       0                       0                       0                       3 
                 1.0501     0.00200050012503126        1.87813641920012        1.83412256568594     0.00147854452052352        7.11786851582184         2.4889191124828        1.85528935905748   1.09827668089246E-025                       0                       0                       0                       0   1.09827668089246E-025                       0                       0       0.344906985759735       0.995129346847534                       0                       0                       0                       3 
                 1.0501     0.00225056264066016        1.87794858540118        1.83397443177208     0.00166074797687937        7.11679203001642        2.48851053489317        1.85517032381665   1.09827668089246E-025                       0                       0                       0                       0   1.09827668089246E-025                       0                       0       0.344906985759735       0.995129346847534                       0                       0                       0                       3 
                 1.0501     0.00250062515628907        1.87776058260175        1.83382571080385     0.00186025124346401        7.11571422778607        2.48810161930254        1.85505122631248   1.09827668089246E-025                       0                       0                       0                       0   1.09827668089246E-025                       0                       0       0.344906985759735       0.995129346847534                       0                       0                       0                       3 
                 1.0501     0.00275068767191798        1.87753654443956        1.83361865115082     0.00204067975245514          7.114370168002        2.48760210823707        1.85490009737193   1.09827668089246E-025                       0                       0                       0                       0   1.09827668089246E-025                       0                       0       0.344906985759735       0.995129346847534                       0                       0                       0                       3 
                 1.0501     0.00300075018754689        1.87724129357314        1.83329630320352     0.00218341292645172        7.11249993284541        2.48692356334869        1.85468566824427   1.09827668089246E-025                       0                       0                       0                       0   1.09827668089246E-025                       0                       0       0.344906985759735       0.995129346847534                       0                       0                       0                       3 
                 1.0501     0.00325081270317579        1.87694604270672        1.83297395525622     0.00232614610044829        7.11062969768881        2.48624501846031        1.85447123911661   1.09827668089246E-025                       0                       0                       0                       0   1.09827668089246E-025                       0                       0       0.344906985759735       0.995129346847534                       0                       0                       0                       3 
                 1.0501      0.0035008752188047        1.87665067104184        1.83265121471395     0.00248062658770264        7.10875859278337        2.48556623197503        1.85425676166958   1.09827668089246E-025                       0                       0                       0                       0   1.09827668089246E-025                       0                       0       0.344906985759735       0.995129346847534                       0                       0                       0                       3 
                 1.0501     0.00375093773443361        1.87635497302887        1.83232741354036      0.0026668435191071        7.10688513817162        2.48488679279355         1.8540421536833   1.09827668089246E-025                       0                       0                       0                       0   1.09827668089246E-025                       0                       0       0.344906985759735       0.995129346847534                       0                       0                       0                       3 
                 1.0501     0.00400100025006252        1.87619382007331        1.83205956354159     0.00284105050361254        7.10561797350201        2.48445364996367        1.85387836411605   4.08723632716601E-009                       0                       0                       0                       0   4.08723632716601E-009                       0                       0      0.0254846885800362       0.996914625167847                       0                       0                       0                       4 
                 1.0501     0.00425106276569142        1.87576746568977        1.83156133032516     0.00291055483029091        7.10321715341169        2.48360657524507        1.85366731087112   4.08723632716601E-009                       0                       0                       0                       0   4.08723632716601E-009                       0                       0      0.0254846885800362       0.996914625167847                       0                       0                       0                       4 
                 1.0501     0.00450112528132033        1.87534111130623        1.83106309710873     0.00298005915696929        7.10081633332137        2.48275950052646         1.8534562576262   4.08723632716601E-009                       0                       0                       0                       0   4.08723632716601E-009                       0                       0      0.0254846885800362       0.996914625167847                       0                       0                       0                       4 
                 1.0501     0.00475118779694924        1.87491475692268        1.83056486389231     0.00304956348364766        7.09841551323104        2.48191242580786        1.85324520438128   4.08723632716601E-009                       0                       0                       0                       0   4.08723632716601E-009                       0                       0      0.0254846885800362       0.996914625167847                       0                       0                       0                       4 
                 1.0501     0.00500125031257814        1.87447621627965        1.83005167576535     0.00312523693213532        7.09594975568912         2.4810428662869        1.85302941087019   4.08723632716601E-009                       0                       0                       0                       0   4.08723632716601E-009                       0                       0      0.0254846885800362       0.996914625167847                       0                       0                       0                       4 
                 1.0501     0.00525131282820705        1.87403687228431        1.82953750176888     0.00320131706638246        7.09347971728881        2.48017182450489         1.8528133048675   4.08723632716601E-009                       0                       0                       0                       0   4.08723632716601E-009                       0                       0      0.0254846885800362       0.996914625167847                       0                       0                       0                       4 
                 1.0501     0.00550137534383596        1.87357963465426        1.82900486323834     0.00328491658335437        7.09095409019031        2.47928236334497        1.85260074461001   4.08723632716601E-009                       0                       0                       0                       0   4.08723632716601E-009                       0                       0      0.0254846885800362       0.996914625167847                       0                       0                       0                       4 
                 1.0501     0.00575143785946487        1.87311366323536          1.828463212266     0.00337218627142409        7.08840133054105         2.4783839117837        1.85238991501207   4.08723632716601E-009                       0                       0                       0                       0   4.08723632716601E-009                       0                       0      0.0254846885800362       0.996914625167847                       0                       0                       0                       4 
                 1.0501     0.00600150037509377        1.87264769181647        1.82792156129365      0.0034594559594938         7.0858485708918        2.47748546022244        1.85217908541413   4.08723632716601E-009                       0                       0                       0                       0   4.08723632716601E-009                       0                       0      0.0254846885800362       0.996914625167847                       0                       0                       0                       4 
                 1.0501     0.00625156289072268        1.87217383314103        1.82737024775444     0.00355071162579387        7.08325374587432        2.47657242672297         1.8519651795151   4.08723632716601E-009                       0                       0                       0                       0   4.08723632716601E-009                       0                       0      0.0254846885800362       0.996914625167847                       0                       0                       0                       4 
                 1.0501     0.00650162540635159        1.87169484975755        1.82681265600762     0.00364455716280243        7.08063158908063        2.47564991867736        1.85174927480383   4.08723632716601E-009                       0                       0                       0                       0   4.08723632716601E-009                       0                       0      0.0254846885800362       0.996914625167847                       0                       0                       0                       4 
                 1.0501     0.00675168792198049        1.87120681301508        1.82624572964715     0.00374220716476784        7.07798133722831        2.47471809122107        1.85153514123668   4.08723632716601E-009                       0                       0                       0                       0   4.08723632716601E-009                       0                       0      0.0254846885800362       0.996914625167847                       0                       0                       0                       4 
                 1.0501      0.0070017504376094        1.87070120205459        1.82566068310221     0.00384724232583631        7.07527654775233        2.47376817309199        1.85132444578271   4.08723632716601E-009                       0                       0                       0                       0   4.08723632716601E-009                       0                       0      0.0254846885800362       0.996914625167847                       0                       0                       0                       4 
                 1.0501     0.00725181295323831        1.87019559109411        1.82507563655726     0.00395227748690477        7.07257175827635        2.47281825496292        1.85111375032874   4.08723632716601E-009                       0                       0                       0                       0   4.08723632716601E-009                       0                       0      0.0254846885800362       0.996914625167847                       0                       0                       0                       4 
                 1.0501     0.00750187546886722        1.86968641899003        1.82448621979652       0.004059115414666         7.0698479678621        2.47186175392813         1.8509016573864   4.08723632716601E-009                       0                       0                       0                       0   4.08723632716601E-009                       0                       0      0.0254846885800362       0.996914625167847                       0                       0                       0                       4 
                 1.0501     0.00775193798449612         1.8691678184223        1.82388523247709     0.00417072633734001          7.067073870671        2.47088782402937        1.85068586446177   4.08723632716601E-009                       0                       0                       0                       0   4.08723632716601E-009                       0                       0      0.0254846885800362       0.996914625167847                       0                       0                       0                       4 
                 1.0501     0.00800200050012503        1.86867169774926        1.82330955704042     0.00425659525332669        7.06438936935015        2.46994394396623        1.85047034639516   8.02924631157631E-026                       0                       0                       0                       0   8.02924631157631E-026                       0                       0       0.873032331466675       0.996310532093048                       0                       0                       0                       4 
                 1.0501     0.00825206301575394         1.8681575682879        1.82260100812367     0.00441292901844756        7.06170300043559        2.46904790637045        1.85030792029772   8.02924631157631E-026                       0                       0                       0                       0   8.02924631157631E-026                       0                       0       0.873032331466675       0.996310532093048                       0                       0                       0                       4 
                 1.0501     0.00850212553138285        1.86764343882654        1.82189245920693     0.00456926278356844        7.05901663152103        2.46815186877468        1.85014549420028   8.02924631157631E-026                       0                       0                       0                       0   8.02924631157631E-026                       0                       0       0.873032331466675       0.996310532093048                       0                       0                       0                       4 
                 1.0501     0.00875218804701175        1.86712930936518        1.82118391029019     0.00472559654868931        7.05633026260647        2.46725583117891        1.84998306810284   8.02924631157631E-026                       0                       0                       0                       0   8.02924631157631E-026                       0                       0       0.873032331466675       0.996310532093048                       0                       0                       0                       4 
                 1.0501     0.00900225056264066        1.86660054037328        1.82045766755236     0.00487032306350358        7.05356604087914        2.46633274731376         1.8498148493854   8.02924631157631E-026                       0                       0                       0                       0   8.02924631157631E-026                       0                       0       0.873032331466675       0.996310532093048                       0                       0                       0                       4 
                 1.0501     0.00925231307826957        1.86607087255848        1.81973033846743     0.00501433692825618        7.05079703922457        2.46540800288948        1.84964627501861   8.02924631157631E-026                       0                       0                       0                       0   8.02924631157631E-026                       0                       0       0.873032331466675       0.996310532093048                       0                       0                       0                       4 
                 1.0501     0.00950237559389847        1.86559011254875        1.81906626007128     0.00521399262103648        7.04825498444156        2.46455852454576        1.84948540865881   8.02924631157631E-026                       0                       0                       0                       0   8.02924631157631E-026                       0                       0       0.873032331466675       0.996310532093048                       0                       0                       0                       4 
                 1.0501     0.00975243810952738        1.86513279341558         1.8184324969098     0.00544031672023604        7.04582170235024        2.46374512025815        1.84932823664677   8.02924631157631E-026                       0                       0                       0                       0   8.02924631157631E-026                       0                       0       0.873032331466675       0.996310532093048                       0                       0                       0                       4 
                 1.0501      0.0100025006251563         1.8646754742824        1.81779873374833     0.00566664081943559        7.04338842025892        2.46293171597055        1.84917106463473   8.02924631157631E-026                       0                       0                       0                       0   8.02924631157631E-026                       0                       0       0.873032331466675       0.996310532093048                       0                       0                       0                       4 
                 1.0501      0.0102525631407852        1.86420868798908        1.81715353905917      0.0058854478451243        7.04090466483539        2.46210079607251         1.8490101139435   8.02924631157631E-026                       0                       0                       0                       0   8.02924631157631E-026                       0                       0       0.873032331466675       0.996310532093048                       0                       0                       0                       4 
                 1.0501      0.0105026256564141        1.86373585287065        1.81650104045728     0.00609945200889427        7.03838866063247        2.46125868497644        1.84884674895176   8.02924631157631E-026                       0                       0                       0                       0   8.02924631157631E-026                       0                       0       0.873032331466675       0.996310532093048                       0                       0                       0                       4 
                 1.0501       0.010752688172043        1.86328791329542        1.81588073609198     0.00634177096552169        7.03598811268362        2.46045487471606        1.84868732940755   8.02924631157631E-026                       0                       0                       0                       0   8.02924631157631E-026                       0                       0       0.873032331466675       0.996310532093048                       0                       0                       0                       4 
                 1.0501      0.0110027506876719        1.86288744884597        1.81532182526283     0.00663808546433113        7.03380773668052        2.45972410311074        1.84853543372479   8.02924631157631E-026                       0                       0                       0                       0   8.02924631157631E-026                       0                       0       0.873032331466675       0.996310532093048                       0                       0                       0                       4 
                 1.0501      0.0112528132033008        1.86248698439653        1.81476291443369     0.00693439996314057        7.03162736067742        2.45899333150542        1.84838353804204   8.02924631157631E-026                       0                       0                       0                       0   8.02924631157631E-026                       0                       0       0.873032331466675       0.996310532093048                       0                       0                       0                       4 
                 1.0501      0.0115028757189297        1.86208219788881        1.81419878604067     0.00722728764206133        7.02942397515545        2.45825456253759        1.84822991353597   8.02924631157631E-026                       0                       0                       0                       0   8.02924631157631E-026                       0                       0       0.873032331466675       0.996310532093048                       0                       0                       0                       4 
                 1.0501      0.0117529382345586        1.86166619509678        1.81362111741378      0.0075112822927745        7.02716087704075        2.45749503940916        1.84807180251618   8.02924631157631E-026                       0                       0                       0                       0   8.02924631157631E-026                       0                       0       0.873032331466675       0.996310532093048                       0                       0                       0                       4 
                 1.0501      0.0120030007501875        1.86123905636094        1.81303079156575     0.00774775936691498        7.02480119945594        2.45669973704361        1.84789781862504   1.23746280597159E-025                       0                       0                       0                       0   1.23746280597159E-025                       0                       0       0.995729863643646       0.998060286045074                       0                       0                       0                       4 
                 1.0501      0.0122530632658165        1.86088053425781         1.8125343247522     0.00810438782187681        7.02287524983932        2.45605410214126        1.84776801198181   1.23746280597159E-025                       0                       0                       0                       0   1.23746280597159E-025                       0                       0       0.995729863643646       0.998060286045074                       0                       0                       0                       4 
                 1.0501      0.0125031257814454        1.86052201215468        1.81203785793865     0.00846101627683864         7.0209493002227         2.4554084672389        1.84763820533859   1.23746280597159E-025                       0                       0                       0                       0   1.23746280597159E-025                       0                       0       0.995729863643646       0.998060286045074                       0                       0                       0                       4 
                 1.0501      0.0127531882970743        1.86016349005155         1.8115413911251     0.00881764473180046        7.01902335060608        2.45476283233654        1.84750839869536   1.23746280597159E-025                       0                       0                       0                       0   1.23746280597159E-025                       0                       0       0.995729863643646       0.998060286045074                       0                       0                       0                       4 
                 1.0501      0.0130032508127032        1.85980336028515        1.81104272435128     0.00917435160331471        7.01708885498997        2.45411427825614        1.84737795744821   1.23746280597159E-025                       0                       0                       0                       0   1.23746280597159E-025                       0                       0       0.995729863643646       0.998060286045074                       0                       0                       0                       4 
                 1.0501      0.0132533133283321        1.85944313902513        1.81054393237567     0.00953106293758809        7.01515387301305        2.45346555804259        1.84724748008516   1.23746280597159E-025                       0                       0                       0                       0   1.23746280597159E-025                       0                       0       0.995729863643646       0.998060286045074                       0                       0                       0                       4 
                 1.0501       0.013503375843961         1.8590988655037        1.81007066594042     0.00989973917429282        7.01329344545462        2.45283964196756        1.84711818849136   1.23746280597159E-025                       0                       0                       0                       0   1.23746280597159E-025                       0                       0       0.995729863643646       0.998060286045074                       0                       0                       0                       4 