VARIABLES = "x"
 "y"
 "rho"
 "rhoU"
 "rhoV"
 "rhoE"
 "P"
 "T"
 "ABV"
 "error"
 "error_hMLP"
 "error_BD"
 "ABV_P"
 "ABV_I"
 "ABV_I_BD"
 "ABV_D"
 "Ducros"
 "Sk"
 "trouble_vertex"
 "trouble_face"
 "hMLP_penalty"
 "BD_penalty"
ZONE
DT=(DOUBLE,DOUBLE,DOUBLE,DOUBLE,DOUBLE,DOUBLE,DOUBLE,DOUBLE,DOUBLE,DOUBLE,DOUBLE,DOUBLE,DOUBLE,DOUBLE,DOUBLE,DOUBLE,DOUBLE,DOUBLE,DOUBLE,DOUBLE,DOUBLE,DOUBLE)
                 0.5201                       0        1.94917466871066        1.73087123762905   -0.000615094039534102        7.35679497626896        2.63531443092614        1.89282172080674   5.50486265638028E-006                       0                       0                       0                       0   1.91801845517148E-007   5.31306113771279E-006                       0       0.386552572250366       0.991797626018524                       0                       0                       0                       3 
                 0.5201    0.000250062515628907        1.94918539246819         1.7307930271803   -0.000966198762436223        7.35678151370553        2.63533835913244        1.89282850083146   5.50486265638028E-006                       0                       0                       0                       0   1.91801845517148E-007   5.31306113771279E-006                       0       0.386552572250366       0.991797626018524                       0                       0                       0                       3 
                 0.5201    0.000500125031257815        1.94918571441376        1.73068875258561    -0.00126527017920545        7.35671917550301         2.6353503545861        1.89283681179687   5.50486265638028E-006                       0                       0                       0                       0   1.91801845517148E-007   5.31306113771279E-006                       0       0.386552572250366       0.991797626018524                       0                       0                       0                       3 
                 0.5201    0.000750187546886722        1.94918603635934        1.73058447799092    -0.00156434159597468        7.35665683730049        2.63536235003976        1.89284512276228   5.50486265638028E-006                       0                       0                       0                       0   1.91801845517148E-007   5.31306113771279E-006                       0       0.386552572250366       0.991797626018524                       0                       0                       0                       3 
                 0.5201     0.00100025006251563        1.94918635830491        1.73048020339623    -0.00186341301274391        7.35659449909797        2.63537434549342        1.89285343372769   5.50486265638028E-006                       0                       0                       0                       0   1.91801845517148E-007   5.31306113771279E-006                       0       0.386552572250366       0.991797626018524                       0                       0                       0                       3 
                 0.5201     0.00125031257814454        1.94918668025049        1.73037592880154    -0.00216248442951314        7.35653216089545        2.63538634094708        1.89286174469309   5.50486265638028E-006                       0                       0                       0                       0   1.91801845517148E-007   5.31306113771279E-006                       0       0.386552572250366       0.991797626018524                       0                       0                       0                       3 
                 0.5201     0.00150037509377344        1.94918700219606        1.73027165420685    -0.00246155584628237        7.35646982269293        2.63539833640074         1.8928700556585   5.50486265638028E-006                       0                       0                       0                       0   1.91801845517148E-007   5.31306113771279E-006                       0       0.386552572250366       0.991797626018524                       0                       0                       0                       3 
                 0.5201     0.00175043760940235        1.94918732414164        1.73016737961216     -0.0027606272630516        7.35640748449041         2.6354103318544        1.89287836662391   5.50486265638028E-006                       0                       0                       0                       0   1.91801845517148E-007   5.31306113771279E-006                       0       0.386552572250366       0.991797626018524                       0                       0                       0                       3 
                 0.5201     0.00200050012503126        1.94918764608721        1.73006310501747    -0.00305969867982083        7.35634514628788        2.63542232730806        1.89288667758932   5.50486265638028E-006                       0                       0                       0                       0   1.91801845517148E-007   5.31306113771279E-006                       0       0.386552572250366       0.991797626018524                       0                       0                       0                       3 
                 0.5201     0.00225056264066016        1.94918796803279        1.72995883042277    -0.00335877009659006        7.35628280808536        2.63543432276172        1.89289498855473   5.50486265638028E-006                       0                       0                       0                       0   1.91801845517148E-007   5.31306113771279E-006                       0       0.386552572250366       0.991797626018524                       0                       0                       0                       3 
                 0.5201     0.00250062515628907        1.94918846536495        1.72985522398449    -0.00365827880502461        7.35622136139405        2.63544646375971        1.89290323372408   5.50486265638028E-006                       0                       0                       0                       0   1.91801845517148E-007   5.31306113771279E-006                       0       0.386552572250366       0.991797626018524                       0                       0                       0                       3 
                 0.5201     0.00275068767191798        1.94924100331944        1.72999817222366    -0.00407251908739226        7.35644742986373        2.63549388270875        1.89288627036305   5.50486265638028E-006                       0                       0                       0                       0   1.91801845517148E-007   5.31306113771279E-006                       0       0.386552572250366       0.991797626018524                       0                       0                       0                       3 
                 0.5201     0.00300075018754689        1.94928171154886        1.73012791629054    -0.00444735488983313        7.35662853021184        2.63552626804885        1.89286999422563   5.50486265638028E-006                       0                       0                       0                       0   1.91801845517148E-007   5.31306113771279E-006                       0       0.386552572250366       0.991797626018524                       0                       0                       0                       3 
                 0.5201     0.00325081270317579        1.94932241977828        1.73025766035741      -0.004822190692274        7.35680963055994        2.63555865338896        1.89285371808821   5.50486265638028E-006                       0                       0                       0                       0   1.91801845517148E-007   5.31306113771279E-006                       0       0.386552572250366       0.991797626018524                       0                       0                       0                       3 
                 0.5201      0.0035008752188047         1.9493631280077        1.73038740442429    -0.00519702649471487        7.35699073090804        2.63559103872906        1.89283744195078   5.50486265638028E-006                       0                       0                       0                       0   1.91801845517148E-007   5.31306113771279E-006                       0       0.386552572250366       0.991797626018524                       0                       0                       0                       3 
                 0.5201     0.00375093773443361        1.94940383623712        1.73051714849116    -0.00557186229715574        7.35717183125615        2.63562342406916        1.89282116581336   5.50486265638028E-006                       0                       0                       0                       0   1.91801845517148E-007   5.31306113771279E-006                       0       0.386552572250366       0.991797626018524                       0                       0                       0                       3 
                 0.5201     0.00400100025006252        1.94944454446654        1.73064689255804    -0.00594669809959661        7.35735293160425        2.63565580940926        1.89280488967594   5.50486265638028E-006                       0                       0                       0                       0   1.91801845517148E-007   5.31306113771279E-006                       0       0.386552572250366       0.991797626018524                       0                       0                       0                       3 
                 0.5201     0.00425106276569142        1.94948525269596        1.73077663662492    -0.00632153390203748        7.35753403195235        2.63568819474936        1.89278861353852   5.50486265638028E-006                       0                       0                       0                       0   1.91801845517148E-007   5.31306113771279E-006                       0       0.386552572250366       0.991797626018524                       0                       0                       0                       3 
                 0.5201     0.00450112528132033        1.94952596092538        1.73090638069179    -0.00669636970447835        7.35771513230046        2.63572058008946         1.8927723374011   5.50486265638028E-006                       0                       0                       0                       0   1.91801845517148E-007   5.31306113771279E-006                       0       0.386552572250366       0.991797626018524                       0                       0                       0                       3 
                 0.5201     0.00475118779694924         1.9495666691548        1.73103612475867    -0.00707120550691922        7.35789623264856        2.63575296542956        1.89275606126368   5.50486265638028E-006                       0                       0                       0                       0   1.91801845517148E-007   5.31306113771279E-006                       0       0.386552572250366       0.991797626018524                       0                       0                       0                       3 
                 0.5201     0.00500125031257814        1.94960771831928        1.73116670607811    -0.00744658897669353        7.35807853312625        2.63578558247194        1.89273962085971   5.50486265638028E-006                       0                       0                       0                       0   1.91801845517148E-007   5.31306113771279E-006                       0       0.386552572250366       0.991797626018524                       0                       0                       0                       3 
                 0.5201     0.00525131282820705          1.949696328212        1.73146312098156      -0.007889696475931        7.35843670082661        2.63583648598118        1.89269019135121   5.50486265638028E-006                       0                       0                       0                       0   1.91801845517148E-007   5.31306113771279E-006                       0       0.386552572250366       0.991797626018524                       0                       0                       0                       3 
                 0.5201     0.00550137534383596        1.94977169924837        1.73175903666097    -0.00830587354632089        7.35875378144662        2.63586922903859        1.89264056403696   5.50486265638028E-006                       0                       0                       0                       0   1.91801845517148E-007   5.31306113771279E-006                       0       0.386552572250366       0.991797626018524                       0                       0                       0                       3 
                 0.5201     0.00575143785946487        1.94984707028474        1.73205495234038    -0.00872205061671078        7.35907086206663          2.635901972096        1.89259093672271   5.50486265638028E-006                       0                       0                       0                       0   1.91801845517148E-007   5.31306113771279E-006                       0       0.386552572250366       0.991797626018524                       0                       0                       0                       3 
                 0.5201     0.00600150037509377        1.94992244132111        1.73235086801979    -0.00913822768710067        7.35938794268665         2.6359347151534        1.89254130940847   5.50486265638028E-006                       0                       0                       0                       0   1.91801845517148E-007   5.31306113771279E-006                       0       0.386552572250366       0.991797626018524                       0                       0                       0                       3 
                 0.5201     0.00625156289072268        1.94999781235748         1.7326467836992    -0.00955440475749057        7.35970502330666        2.63596745821081        1.89249168209422   5.50486265638028E-006                       0                       0                       0                       0   1.91801845517148E-007   5.31306113771279E-006                       0       0.386552572250366       0.991797626018524                       0                       0                       0                       3 
                 0.5201     0.00650162540635159        1.95007318339385        1.73294269937861    -0.00997058182788046        7.36002210392668        2.63600020126822        1.89244205477997   5.50486265638028E-006                       0                       0                       0                       0   1.91801845517148E-007   5.31306113771279E-006                       0       0.386552572250366       0.991797626018524                       0                       0                       0                       3 
                 0.5201     0.00675168792198049        1.95014855443021        1.73323861505802     -0.0103867588982704        7.36033918454669        2.63603294432562        1.89239242746572   5.50486265638028E-006                       0                       0                       0                       0   1.91801845517148E-007   5.31306113771279E-006                       0       0.386552572250366       0.991797626018524                       0                       0                       0                       3 
                 0.5201      0.0070017504376094        1.95022392546658        1.73353453073744     -0.0108029359686602         7.3606562651667        2.63606568738303        1.89234280015147   5.50486265638028E-006                       0                       0                       0                       0   1.91801845517148E-007   5.31306113771279E-006                       0       0.386552572250366       0.991797626018524                       0                       0                       0                       3 
                 0.5201     0.00725181295323831        1.95029929650295        1.73383044641685     -0.0112191130390501        7.36097334578672        2.63609843044044        1.89229317283722   5.50486265638028E-006                       0                       0                       0                       0   1.91801845517148E-007   5.31306113771279E-006                       0       0.386552572250366       0.991797626018524                       0                       0                       0                       3 
                 0.5201     0.00750187546886722        1.95037516382701        1.73412686965305     -0.0116356212378418        7.36129135226187        2.63613143447594        1.89224325207913   5.50486265638028E-006                       0                       0                       0                       0   1.91801845517148E-007   5.31306113771279E-006                       0       0.386552572250366       0.991797626018524                       0                       0                       0                       3 
                 0.5201     0.00775193798449612        1.95049406294765        1.73450909249409     -0.0120733277792646        7.36167417749134        2.63616598204545         1.8921527565966   5.50486265638028E-006                       0                       0                       0                       0   1.91801845517148E-007   5.31306113771279E-006                       0       0.386552572250366       0.991797626018524                       0                       0                       0                       3 
                 0.5201     0.00800200050012503        1.95059833754234        1.73490335658482     -0.0124964231396142        7.36201973240891        2.63617921758577        1.89206113327063   5.50486265638028E-006                       0                       0                       0                       0   1.91801845517148E-007   5.31306113771279E-006                       0       0.386552572250366       0.991797626018524                       0                       0                       0                       3 
                 0.5201     0.00825206301575394        1.95070261213703        1.73529762067556     -0.0129195184999638        7.36236528732648        2.63619245312609        1.89196950994466   5.50486265638028E-006                       0                       0                       0                       0   1.91801845517148E-007   5.31306113771279E-006                       0       0.386552572250366       0.991797626018524                       0                       0                       0                       3 
                 0.5201     0.00850212553138285        1.95080688673173        1.73569188476629     -0.0133426138603134        7.36271084224405        2.63620568866641        1.89187788661869   5.50486265638028E-006                       0                       0                       0                       0   1.91801845517148E-007   5.31306113771279E-006                       0       0.386552572250366       0.991797626018524                       0                       0                       0                       3 
                 0.5201     0.00875218804701175        1.95091116132642        1.73608614885702     -0.0137657092206631        7.36305639716162        2.63621892420673        1.89178626329272   5.50486265638028E-006                       0                       0                       0                       0   1.91801845517148E-007   5.31306113771279E-006                       0       0.386552572250366       0.991797626018524                       0                       0                       0                       3 
                 0.5201     0.00900225056264066        1.95101543592111        1.73648041294775     -0.0141888045810127        7.36340195207918        2.63623215974705        1.89169463996675   5.50486265638028E-006                       0                       0                       0                       0   1.91801845517148E-007   5.31306113771279E-006                       0       0.386552572250366       0.991797626018524                       0                       0                       0                       3 
                 0.5201     0.00925231307826957         1.9511197105158        1.73687467703849     -0.0146118999413623        7.36374750699676        2.63624539528737        1.89160301664078   5.50486265638028E-006                       0                       0                       0                       0   1.91801845517148E-007   5.31306113771279E-006                       0       0.386552572250366       0.991797626018524                       0                       0                       0                       3 
                 0.5201     0.00950237559389847        1.95122398511049        1.73726894112922     -0.0150349953017119        7.36409306191432        2.63625863082769        1.89151139331481   5.50486265638028E-006                       0                       0                       0                       0   1.91801845517148E-007   5.31306113771279E-006                       0       0.386552572250366       0.991797626018524                       0                       0                       0                       3 
                 0.5201     0.00975243810952738        1.95132825970518        1.73766320521995     -0.0154580906620615        7.36443861683189        2.63627186636801        1.89141976998884   5.50486265638028E-006                       0                       0                       0                       0   1.91801845517148E-007   5.31306113771279E-006                       0       0.386552572250366       0.991797626018524                       0                       0                       0                       3 
                 0.5201      0.0100025006251563        1.95151135353581        1.73605218430724     -0.0150057428025459         7.3647906201126        2.63701672818468        1.89177660034202   1.33713137984159E-006    1.2248303846718E-006    1.2248303846718E-006                       0   1.16358878088363E-008    9.1614350594682E-007   4.09351940788838E-007                       0      0.0233493000268936       0.994068145751953                       1                       0                       0                       4 
                 0.5201      0.0102525631407852        1.95166846841524         1.7365653550918     -0.0155237066639513        7.36534416348548        2.63707817423975        1.89166848139811   1.33713137984159E-006    1.2248303846718E-006    1.2248303846718E-006                       0   1.16358878088363E-008    9.1614350594682E-007   4.09351940788838E-007                       0      0.0233493000268936       0.994068145751953                       1                       0                       0                       4 
                 0.5201      0.0105026256564141        1.95182338382769         1.7370824830569     -0.0160621339891451        7.36590205929196        2.63713979699618        1.89156258517136   1.33713137984159E-006    1.2248303846718E-006    1.2248303846718E-006                       0   1.16358878088363E-008    9.1614350594682E-007   4.09351940788838E-007                       0      0.0233493000268936       0.994068145751953                       1                       0                       0                       4 
                 0.5201       0.010752688172043        1.95197829924014          1.737599611022     -0.0166005613143389        7.36645995509844        2.63720141975261         1.8914566889446   1.33713137984159E-006    1.2248303846718E-006    1.2248303846718E-006                       0   1.16358878088363E-008    9.1614350594682E-007   4.09351940788838E-007                       0      0.0233493000268936       0.994068145751953                       1                       0                       0                       4 
                 0.5201      0.0110027506876719        1.95213321465259         1.7381167389871     -0.0171389886395327        7.36701785090492        2.63726304250904        1.89135079271785   1.33713137984159E-006    1.2248303846718E-006    1.2248303846718E-006                       0   1.16358878088363E-008    9.1614350594682E-007   4.09351940788838E-007                       0      0.0233493000268936       0.994068145751953                       1                       0                       0                       4 
                 0.5201      0.0112528132033008        1.95228813006504        1.73863386695221     -0.0176774159647265         7.3675757467114        2.63732466526547         1.8912448964911   1.33713137984159E-006    1.2248303846718E-006    1.2248303846718E-006                       0   1.16358878088363E-008    9.1614350594682E-007   4.09351940788838E-007                       0      0.0233493000268936       0.994068145751953                       1                       0                       0                       4 
                 0.5201      0.0115028757189297        1.95244304547749        1.73915099491731     -0.0182158432899203        7.36813364251788         2.6373862880219        1.89113900026435   1.33713137984159E-006    1.2248303846718E-006    1.2248303846718E-006                       0   1.16358878088363E-008    9.1614350594682E-007   4.09351940788838E-007                       0      0.0233493000268936       0.994068145751953                       1                       0                       0                       4 
                 0.5201      0.0117529382345586        1.95259796088995        1.73966812288241     -0.0187542706151142        7.36869153832435        2.63744791077833        1.89103310403759   1.33713137984159E-006    1.2248303846718E-006    1.2248303846718E-006                       0   1.16358878088363E-008    9.1614350594682E-007   4.09351940788838E-007                       0      0.0233493000268936       0.994068145751953                       1                       0                       0                       4 
                 0.5201      0.0120030007501875         1.9527528763024        1.74018525084751      -0.019292697940308        7.36924943413083        2.63750953353476        1.89092720781084   1.33713137984159E-006    1.2248303846718E-006    1.2248303846718E-006                       0   1.16358878088363E-008    9.1614350594682E-007   4.09351940788838E-007                       0      0.0233493000268936       0.994068145751953                       1                       0                       0                       4 
                 0.5201      0.0122530632658165        1.95290779171485        1.74070237881261     -0.0198311252655018        7.36980732993731        2.63757115629119        1.89082131158409   1.33713137984159E-006    1.2248303846718E-006    1.2248303846718E-006                       0   1.16358878088363E-008    9.1614350594682E-007   4.09351940788838E-007                       0      0.0233493000268936       0.994068145751953                       1                       0                       0                       4 
                 0.5201      0.0125031257814454        1.95306221082474         1.7412190103278     -0.0203686411936648        7.37036372163447        2.63763226128287        1.89071552743494   1.33713137984159E-006    1.2248303846718E-006    1.2248303846718E-006                       0   1.16358878088363E-008    9.1614350594682E-007   4.09351940788838E-007                       0      0.0233493000268936       0.994068145751953                       1                       0                       0                       4 
                 0.5201      0.0127531882970743        1.95317625838352        1.74171058174324     -0.0208745007198451        7.37081063021817        2.63765110190848        1.89061871480954   1.33713137984159E-006    1.2248303846718E-006    1.2248303846718E-006                       0   1.16358878088363E-008    9.1614350594682E-007   4.09351940788838E-007                       0      0.0233493000268936       0.994068145751953                       1                       0                       0                       4 
                 0.5201      0.0130032508127032        1.95328957132325         1.7422111118149     -0.0214058842875122        7.37126345271623        2.63766908316841        1.89052197610808   1.33713137984159E-006    1.2248303846718E-006    1.2248303846718E-006                       0   1.16358878088363E-008    9.1614350594682E-007   4.09351940788838E-007                       0      0.0233493000268936       0.994068145751953                       1                       0                       0                       4 
                 0.5201      0.0132533133283321        1.95340288426298        1.74271164188655     -0.0219372678551793         7.3717162752143        2.63768706442834        1.89042523740661   1.33713137984159E-006    1.2248303846718E-006    1.2248303846718E-006                       0   1.16358878088363E-008    9.1614350594682E-007   4.09351940788838E-007                       0      0.0233493000268936       0.994068145751953                       1                       0                       0                       4 
                 0.5201       0.013503375843961         1.9535161972027        1.74321217195821     -0.0224686514228463        7.37216909771236        2.63770504568827        1.89032849870515   1.33713137984159E-006    1.2248303846718E-006    1.2248303846718E-006                       0   1.16358878088363E-008    9.1614350594682E-007   4.09351940788838E-007                       0      0.0233493000268936       0.994068145751953                       1                       0                       0                       4 