VARIABLES = "x"
 "y"
 "rho"
 "rhoU"
 "rhoV"
 "rhoE"
 "P"
 "T"
 "ABV"
 "error"
 "error_hMLP"
 "error_BD"
 "ABV_P"
 "ABV_I"
 "ABV_I_BD"
 "ABV_D"
 "Ducros"
 "Sk"
 "trouble_vertex"
 "trouble_face"
 "hMLP_penalty"
 "BD_penalty"
ZONE
DT=(DOUBLE,DOUBLE,DOUBLE,DOUBLE,DOUBLE,DOUBLE,DOUBLE,DOUBLE,DOUBLE,DOUBLE,DOUBLE,DOUBLE,DOUBLE,DOUBLE,DOUBLE,DOUBLE,DOUBLE,DOUBLE,DOUBLE,DOUBLE,DOUBLE,DOUBLE)
                 1.0501                       0        1.86497691424641        1.82071974727722   -0.000174555660615892        7.04974750315484        2.46439655661156        1.84997199067637   9.98086487589978E-013                       0                       0                       0                       0   9.98086487589978E-013                       0                       0       0.998783230781555       0.998464643955231                       0                       0                       0                       3 
                 1.0501    0.000250062515628907        1.86494275415022        1.82067531809281    0.000466123836375647        7.04958637504658        2.46434251179058        1.84996531309224   9.98086487589978E-013                       0                       0                       0                       0   9.98086487589978E-013                       0                       0       0.998783230781555       0.998464643955231                       0                       0                       0                       3 
                 1.0501    0.000500125031257815        1.86491094115781        1.82063429984172     0.00112209350642441        7.04943847086447        2.46429283678069        1.84995958961535   9.98086487589978E-013                       0                       0                       0                       0   9.98086487589978E-013                       0                       0       0.998783230781555       0.998464643955231                       0                       0                       0                       3 
                 1.0501    0.000750187546886722         1.8648791281654        1.82059328159064     0.00177806317647317        7.04929056668236         2.4642431617708        1.84995386613845   9.98086487589978E-013                       0                       0                       0                       0   9.98086487589978E-013                       0                       0       0.998783230781555       0.998464643955231                       0                       0                       0                       3 
                 1.0501     0.00100025006251563        1.86484731517299        1.82055226333955     0.00243403284652194        7.04914266250025        2.46419348676091        1.84994814266156   9.98086487589978E-013                       0                       0                       0                       0   9.98086487589978E-013                       0                       0       0.998783230781555       0.998464643955231                       0                       0                       0                       3 
                 1.0501     0.00125031257814454        1.86481550218058        1.82051124508847      0.0030900025165707        7.04899475831814        2.46414381175102        1.84994241918466   9.98086487589978E-013                       0                       0                       0                       0   9.98086487589978E-013                       0                       0       0.998783230781555       0.998464643955231                       0                       0                       0                       3 
                 1.0501     0.00150037509377344        1.86478368918817        1.82047022683738     0.00374597218661947        7.04884685413603        2.46409413674113        1.84993669570777   9.98086487589978E-013                       0                       0                       0                       0   9.98086487589978E-013                       0                       0       0.998783230781555       0.998464643955231                       0                       0                       0                       3 
                 1.0501     0.00175043760940235        1.86475187619576         1.8204292085863     0.00440194185666823        7.04869894995392        2.46404446173124        1.84993097223087   9.98086487589978E-013                       0                       0                       0                       0   9.98086487589978E-013                       0                       0       0.998783230781555       0.998464643955231                       0                       0                       0                       3 
                 1.0501     0.00200050012503126        1.86472006320334        1.82038819033521     0.00505791152671699        7.04855104577181        2.46399478672135        1.84992524875398   9.98086487589978E-013                       0                       0                       0                       0   9.98086487589978E-013                       0                       0       0.998783230781555       0.998464643955231                       0                       0                       0                       3 
                 1.0501     0.00225056264066016        1.86468825021093        1.82034717208413     0.00571388119676576         7.0484031415897        2.46394511171146        1.84991952527708   9.98086487589978E-013                       0                       0                       0                       0   9.98086487589978E-013                       0                       0       0.998783230781555       0.998464643955231                       0                       0                       0                       3 
                 1.0501     0.00250062515628907         1.8646562672578        1.82030598196433      0.0063696426563403        7.04825426039431        2.46389507901192        1.84991370186889   9.98086487589978E-013                       0                       0                       0                       0   9.98086487589978E-013                       0                       0       0.998783230781555       0.998464643955231                       0                       0                       0                       3 
                 1.0501     0.00275068767191798        1.86456211485476        1.82020371443447     0.00696269780966319        7.04774650226189        2.46371279964702        1.84987024341601   9.98086487589978E-013                       0                       0                       0                       0   9.98086487589978E-013                       0                       0       0.998783230781555       0.998464643955231                       0                       0                       0                       3 
                 1.0501     0.00300075018754689        1.86447168391981        1.82010639147943     0.00756919152576291        7.04725914820424        2.46353742277581         1.8498282593282   9.98086487589978E-013                       0                       0                       0                       0   9.98086487589978E-013                       0                       0       0.998783230781555       0.998464643955231                       0                       0                       0                       3 
                 1.0501     0.00325081270317579        1.86438125298486        1.82000906852438     0.00817568524186264        7.04677179414658         2.4633620459046        1.84978627524038   9.98086487589978E-013                       0                       0                       0                       0   9.98086487589978E-013                       0                       0       0.998783230781555       0.998464643955231                       0                       0                       0                       3 
                 1.0501      0.0035008752188047        1.86429082204991        1.81991174556934     0.00878217895796236        7.04628444008892         2.4631866690334        1.84974429115257   9.98086487589978E-013                       0                       0                       0                       0   9.98086487589978E-013                       0                       0       0.998783230781555       0.998464643955231                       0                       0                       0                       3 
                 1.0501     0.00375093773443361        1.86420039111496        1.81981442261429     0.00938867267406208        7.04579708603127        2.46301129216219        1.84970230706476   9.98086487589978E-013                       0                       0                       0                       0   9.98086487589978E-013                       0                       0       0.998783230781555       0.998464643955231                       0                       0                       0                       3 
                 1.0501     0.00400100025006252        1.86410996018001        1.81971709965925      0.0099951663901618        7.04530973197361        2.46283591529098        1.84966032297695   9.98086487589978E-013                       0                       0                       0                       0   9.98086487589978E-013                       0                       0       0.998783230781555       0.998464643955231                       0                       0                       0                       3 
                 1.0501     0.00425106276569142        1.86401952924506         1.8196197767042      0.0106016601062615        7.04482237791595        2.46266053841977        1.84961833888914   9.98086487589978E-013                       0                       0                       0                       0   9.98086487589978E-013                       0                       0       0.998783230781555       0.998464643955231                       0                       0                       0                       3 
                 1.0501     0.00450112528132033        1.86392909831011        1.81952245374916      0.0112081538223612        7.04433502385829        2.46248516154856        1.84957635480133   9.98086487589978E-013                       0                       0                       0                       0   9.98086487589978E-013                       0                       0       0.998783230781555       0.998464643955231                       0                       0                       0                       3 
                 1.0501     0.00475118779694924        1.86383866737516        1.81942513079411       0.011814647538461        7.04384766980064        2.46230978467735        1.84953437071352   9.98086487589978E-013                       0                       0                       0                       0   9.98086487589978E-013                       0                       0       0.998783230781555       0.998464643955231                       0                       0                       0                       3 
                 1.0501     0.00500125031257814        1.86374786217484        1.81932729971584      0.0124206801709378        7.04335807193949        2.46213363542545        1.84949217752125   9.98086487589978E-013                       0                       0                       0                       0   9.98086487589978E-013                       0                       0       0.998783230781555       0.998464643955231                       0                       0                       0                       3 
                 1.0501     0.00525131282820705        1.86359037489443        1.81913823579364      0.0129527401498542        7.04246417891108        2.46181817894143        1.84941144180493   9.98086487589978E-013                       0                       0                       0                       0   9.98086487589978E-013                       0                       0       0.998783230781555       0.998464643955231                       0                       0                       0                       3 
                 1.0501     0.00550137534383596        1.86343797539818        1.81895562110894      0.0134964090654259        7.04159783529166        2.46151211601444        1.84933270822588   9.98086487589978E-013                       0                       0                       0                       0   9.98086487589978E-013                       0                       0       0.998783230781555       0.998464643955231                       0                       0                       0                       3 
                 1.0501     0.00575143785946487        1.86328557590192        1.81877300642424      0.0140400779809976        7.04073149167223        2.46120605308745        1.84925397464684   9.98086487589978E-013                       0                       0                       0                       0   9.98086487589978E-013                       0                       0       0.998783230781555       0.998464643955231                       0                       0                       0                       3 
                 1.0501     0.00600150037509377        1.86313317640567        1.81859039173954      0.0145837468965693        7.03986514805281        2.46089999016046        1.84917524106779   9.98086487589978E-013                       0                       0                       0                       0   9.98086487589978E-013                       0                       0       0.998783230781555       0.998464643955231                       0                       0                       0                       3 
                 1.0501     0.00625156289072268        1.86298077690941        1.81840777705484       0.015127415812141        7.03899880443338        2.46059392723347        1.84909650748875   9.98086487589978E-013                       0                       0                       0                       0   9.98086487589978E-013                       0                       0       0.998783230781555       0.998464643955231                       0                       0                       0                       3 
                 1.0501     0.00650162540635159        1.86282837741316        1.81822516237014      0.0156710847277127        7.03813246081396        2.46028786430648        1.84901777390971   9.98086487589978E-013                       0                       0                       0                       0   9.98086487589978E-013                       0                       0       0.998783230781555       0.998464643955231                       0                       0                       0                       3 
                 1.0501     0.00675168792198049         1.8626759779169        1.81804254768545      0.0162147536432844        7.03726611719453        2.45998180137949        1.84893904033066   9.98086487589978E-013                       0                       0                       0                       0   9.98086487589978E-013                       0                       0       0.998783230781555       0.998464643955231                       0                       0                       0                       3 
                 1.0501      0.0070017504376094        1.86252357842065        1.81785993300075      0.0167584225588561        7.03639977357511         2.4596757384525        1.84886030675162   9.98086487589978E-013                       0                       0                       0                       0   9.98086487589978E-013                       0                       0       0.998783230781555       0.998464643955231                       0                       0                       0                       3 
                 1.0501     0.00725181295323831         1.8623711789244        1.81767731831605      0.0173020914744278        7.03553342995568        2.45936967552551        1.84878157317257   9.98086487589978E-013                       0                       0                       0                       0   9.98086487589978E-013                       0                       0       0.998783230781555       0.998464643955231                       0                       0                       0                       3 
                 1.0501     0.00750187546886722        1.86221816642475        1.81749369504669      0.0178450017693745        7.03466328489241         2.4590623685254        1.84870251153744   9.98086487589978E-013                       0                       0                       0                       0   9.98086487589978E-013                       0                       0       0.998783230781555       0.998464643955231                       0                       0                       0                       3 
                 1.0501     0.00775193798449612        1.86199399207084        1.81718889823479      0.0183026956240421        7.03334366625567        2.45860884074847        1.84858397390237   9.98086487589978E-013                       0                       0                       0                       0   9.98086487589978E-013                       0                       0       0.998783230781555       0.998464643955231                       0                       0                       0                       3 
                 1.0501     0.00800200050012503        1.86177624954669        1.81689204056648      0.0187701909681957        7.03205865030134        2.45816720296251        1.84846797810395   9.98086487589978E-013                       0                       0                       0                       0   9.98086487589978E-013                       0                       0       0.998783230781555       0.998464643955231                       0                       0                       0                       3 
                 1.0501     0.00825206301575394        1.86155850702255        1.81659518289816      0.0192376863123493          7.030773634347        2.45772556517656        1.84835198230553   9.98086487589978E-013                       0                       0                       0                       0   9.98086487589978E-013                       0                       0       0.998783230781555       0.998464643955231                       0                       0                       0                       3 
                 1.0501     0.00850212553138285         1.8613407644984        1.81629832522984      0.0197051816565029        7.02948861839267         2.4572839273906        1.84823598650712   9.98086487589978E-013                       0                       0                       0                       0   9.98086487589978E-013                       0                       0       0.998783230781555       0.998464643955231                       0                       0                       0                       3 
                 1.0501     0.00875218804701175        1.86112302197426        1.81600146756153      0.0201726770006564        7.02820360243833        2.45684228960465         1.8481199907087   9.98086487589978E-013                       0                       0                       0                       0   9.98086487589978E-013                       0                       0       0.998783230781555       0.998464643955231                       0                       0                       0                       3 
                 1.0501     0.00900225056264066        1.86090527945011        1.81570460989321        0.02064017234481          7.026918586484         2.4564006518187        1.84800399491028   9.98086487589978E-013                       0                       0                       0                       0   9.98086487589978E-013                       0                       0       0.998783230781555       0.998464643955231                       0                       0                       0                       3 
                 1.0501     0.00925231307826957        1.86068753692597        1.81540775222489      0.0211076676889636        7.02563357052966        2.45595901403274        1.84788799911187   9.98086487589978E-013                       0                       0                       0                       0   9.98086487589978E-013                       0                       0       0.998783230781555       0.998464643955231                       0                       0                       0                       3 
                 1.0501     0.00950237559389847        1.86046979440182        1.81511089455658      0.0215751630331172        7.02434855457533        2.45551737624679        1.84777200331345   9.98086487589978E-013                       0                       0                       0                       0   9.98086487589978E-013                       0                       0       0.998783230781555       0.998464643955231                       0                       0                       0                       3 
                 1.0501     0.00975243810952738        1.86025205187768        1.81481403688826      0.0220426583772707        7.02306353862099        2.45507573846084        1.84765600751503   9.98086487589978E-013                       0                       0                       0                       0   9.98086487589978E-013                       0                       0       0.998783230781555       0.998464643955231                       0                       0                       0                       3 
                 1.0501      0.0100025006251563        1.86009780440298        1.81458842843464      0.0225591330853699        7.02209582079087        2.45474520244323        1.84756048159126   4.42431535851995E-010                       0                       0                       0                       0   4.42431535851995E-010                       0                       0       0.989041090011597       0.997778475284576                       0                       0                       0                       4 
                 1.0501      0.0102525631407852        1.85980484369947        1.81419249982933      0.0229064411016148        7.02042628031886        2.45417428808992        1.84742157656561   4.42431535851995E-010                       0                       0                       0                       0   4.42431535851995E-010                       0                       0       0.989041090011597       0.997778475284576                       0                       0                       0                       4 
                 1.0501      0.0105026256564141        1.85951564123537        1.81380238533202      0.0232617182249761        7.01877839623629        2.45361040648163        1.84728422506961   4.42431535851995E-010                       0                       0                       0                       0   4.42431535851995E-010                       0                       0       0.989041090011597       0.997778475284576                       0                       0                       0                       4 
                 1.0501       0.010752688172043        1.85922643877127         1.8134122708347      0.0236169953483375        7.01713051215372        2.45304652487335        1.84714687357361   4.42431535851995E-010                       0                       0                       0                       0   4.42431535851995E-010                       0                       0       0.989041090011597       0.997778475284576                       0                       0                       0                       4 
                 1.0501      0.0110027506876719        1.85893723630717        1.81302215633738      0.0239722724716988        7.01548262807115        2.45248264326507        1.84700952207761   4.42431535851995E-010                       0                       0                       0                       0   4.42431535851995E-010                       0                       0       0.989041090011597       0.997778475284576                       0                       0                       0                       4 
                 1.0501      0.0112528132033008        1.85864803384307        1.81263204184006      0.0243275495950601        7.01383474398858        2.45191876165678        1.84687217058161   4.42431535851995E-010                       0                       0                       0                       0   4.42431535851995E-010                       0                       0       0.989041090011597       0.997778475284576                       0                       0                       0                       4 
                 1.0501      0.0115028757189297        1.85835883137897        1.81224192734274      0.0246828267184215        7.01218685990601         2.4513548800485        1.84673481908561   4.42431535851995E-010                       0                       0                       0                       0   4.42431535851995E-010                       0                       0       0.989041090011597       0.997778475284576                       0                       0                       0                       4 
                 1.0501      0.0117529382345586        1.85806962891487        1.81185181284542      0.0250381038417828        7.01053897582343        2.45079099844022        1.84659746758961   4.42431535851995E-010                       0                       0                       0                       0   4.42431535851995E-010                       0                       0       0.989041090011597       0.997778475284576                       0                       0                       0                       4 
                 1.0501      0.0120030007501875        1.85778042645077         1.8114616983481      0.0253933809651442        7.00889109174086        2.45022711683193        1.84646011609361   4.42431535851995E-010                       0                       0                       0                       0   4.42431535851995E-010                       0                       0       0.989041090011597       0.997778475284576                       0                       0                       0                       4 
                 1.0501      0.0122530632658165        1.85749122398667        1.81107158385078      0.0257486580885055        7.00724320765829        2.44966323522365        1.84632276459761   4.42431535851995E-010                       0                       0                       0                       0   4.42431535851995E-010                       0                       0       0.989041090011597       0.997778475284576                       0                       0                       0                       4 
                 1.0501      0.0125031257814454        1.85720134011024        1.81068059478479      0.0261027646811218        7.00559204886066        2.44909825995705        1.84618525988783   4.42431535851995E-010                       0                       0                       0                       0   4.42431535851995E-010                       0                       0       0.989041090011597       0.997778475284576                       0                       0                       0                       4 
                 1.0501      0.0127531882970743        1.85686108275615        1.81022618460154      0.0263715073448123        7.00370238504886        2.44845333580539        1.84603706722746   4.42431535851995E-010                       0                       0                       0                       0   4.42431535851995E-010                       0                       0       0.989041090011597       0.997778475284576                       0                       0                       0                       4 
                 1.0501      0.0130032508127032        1.85652301599121        1.80977536532076      0.0266447519956083        7.00182551353829        2.44781249705628        1.84588977113733   4.42431535851995E-010                       0                       0                       0                       0   4.42431535851995E-010                       0                       0       0.989041090011597       0.997778475284576                       0                       0                       0                       4 
                 1.0501      0.0132533133283321        1.85618494922628        1.80932454603998      0.0269179966464043        6.99994864202772        2.44717165830718        1.84574247504721   4.42431535851995E-010                       0                       0                       0                       0   4.42431535851995E-010                       0                       0       0.989041090011597       0.997778475284576                       0                       0                       0                       4 
                 1.0501       0.013503375843961        1.85584688246135         1.8088737267592      0.0271912412972003        6.99807177051715        2.44653081955807        1.84559517895708   4.42431535851995E-010                       0                       0                       0                       0   4.42431535851995E-010                       0                       0       0.989041090011597       0.997778475284576                       0                       0                       0                       4 