VARIABLES = "x"
 "y"
 "rho"
 "rhoU"
 "rhoV"
 "rhoE"
 "P"
 "T"
 "ABV"
 "error"
 "error_hMLP"
 "error_BD"
 "ABV_P"
 "ABV_I"
 "ABV_I_BD"
 "ABV_D"
 "Ducros"
 "Sk"
 "trouble_vertex"
 "trouble_face"
 "hMLP_penalty"
 "BD_penalty"
ZONE
DT=(DOUBLE,DOUBLE,DOUBLE,DOUBLE,DOUBLE,DOUBLE,DOUBLE,DOUBLE,DOUBLE,DOUBLE,DOUBLE,DOUBLE,DOUBLE,DOUBLE,DOUBLE,DOUBLE,DOUBLE,DOUBLE,DOUBLE,DOUBLE,DOUBLE,DOUBLE)
                 1.0501                       0        1.87144360615007         1.8289141561107   -0.000189732539985883        7.08687780475189         2.4772808393821        1.85321821755233   1.23361921945878E-021                       0                       0                       0                       0   1.23361921945878E-021                       0                       0       0.930368363857269       0.997190117835999                       0                       0                       0                       3 
                 1.0501    0.000250062515628907        1.87142529008818        1.82909737761936    0.000619374526528256        7.08697986346209        2.47724608897831        1.85321034024131   1.23361921945878E-021                       0                       0                       0                       0   1.23361921945878E-021                       0                       0       0.930368363857269       0.997190117835999                       0                       0                       0                       3 
                 1.0501    0.000500125031257815        1.87141108871179        1.82928625234812     0.00144301534729295        7.08710470679606         2.4772190097795        1.85320411596048   1.23361921945878E-021                       0                       0                       0                       0   1.23361921945878E-021                       0                       0       0.930368363857269       0.997190117835999                       0                       0                       0                       3 
                 1.0501    0.000750187546886722        1.87139688733541        1.82947512707688     0.00226665616805765        7.08722955013004         2.4771919305807        1.85319789167964   1.23361921945878E-021                       0                       0                       0                       0   1.23361921945878E-021                       0                       0       0.930368363857269       0.997190117835999                       0                       0                       0                       3 
                 1.0501     0.00100025006251563        1.87138268595902        1.82966400180563     0.00309029698882235        7.08735439346401         2.4771648513819        1.85319166739881   1.23361921945878E-021                       0                       0                       0                       0   1.23361921945878E-021                       0                       0       0.930368363857269       0.997190117835999                       0                       0                       0                       3 
                 1.0501     0.00125031257814454        1.87136848458263        1.82985287653439     0.00391393780958705        7.08747923679798         2.4771377721831        1.85318544311798   1.23361921945878E-021                       0                       0                       0                       0   1.23361921945878E-021                       0                       0       0.930368363857269       0.997190117835999                       0                       0                       0                       3 
                 1.0501     0.00150037509377344        1.87135428320625        1.83004175126315     0.00473757863035175        7.08760408013195         2.4771106929843        1.85317921883714   1.23361921945878E-021                       0                       0                       0                       0   1.23361921945878E-021                       0                       0       0.930368363857269       0.997190117835999                       0                       0                       0                       3 
                 1.0501     0.00175043760940235         1.8713291228977        1.83019499897678     0.00552912690469198         7.0875797525664        2.47703553588954        1.85314788907475   1.23361921945878E-021                       0                       0                       0                       0   1.23361921945878E-021                       0                       0       0.930368363857269       0.997190117835999                       0                       0                       0                       3 
                 1.0501     0.00200050012503126        1.87129183994639        1.83029071773836     0.00629093070719935           7.08731248427        2.47688276579463        1.85307050211501   1.23361921945878E-021                       0                       0                       0                       0   1.23361921945878E-021                       0                       0       0.930368363857269       0.997190117835999                       0                       0                       0                       3 
                 1.0501     0.00225056264066016        1.87125522758183        1.83038735506407     0.00705509902649902        7.08704891817123        2.47673123675088        1.85299337826743   1.23361921945878E-021                       0                       0                       0                       0   1.23361921945878E-021                       0                       0       0.930368363857269       0.997190117835999                       0                       0                       0                       3 
                 1.0501     0.00250062515628907        1.87121861521727        1.83048399238978     0.00781926734579869        7.08678535207246        2.47657970770712        1.85291625441986   1.23361921945878E-021                       0                       0                       0                       0   1.23361921945878E-021                       0                       0       0.930368363857269       0.997190117835999                       0                       0                       0                       3 
                 1.0501     0.00275068767191798        1.87118200285271        1.83058062971549     0.00858343566509836         7.0865217859737        2.47642817866337        1.85283913057228   1.23361921945878E-021                       0                       0                       0                       0   1.23361921945878E-021                       0                       0       0.930368363857269       0.997190117835999                       0                       0                       0                       3 
                 1.0501     0.00300075018754689        1.87114539048815         1.8306772670412     0.00934760398439803        7.08625821987493        2.47627664961962        1.85276200672471   1.23361921945878E-021                       0                       0                       0                       0   1.23361921945878E-021                       0                       0       0.930368363857269       0.997190117835999                       0                       0                       0                       3 
                 1.0501     0.00325081270317579        1.87110877812359        1.83077390436691      0.0101117723036977        7.08599465377616        2.47612512057586        1.85268488287713   1.23361921945878E-021                       0                       0                       0                       0   1.23361921945878E-021                       0                       0       0.930368363857269       0.997190117835999                       0                       0                       0                       3 
                 1.0501      0.0035008752188047        1.87105302855717        1.83080308944266      0.0108215602935397        7.08544814535603        2.47588278792954        1.85255877322576   1.23361921945878E-021                       0                       0                       0                       0   1.23361921945878E-021                       0                       0       0.930368363857269       0.997190117835999                       0                       0                       0                       3 
                 1.0501     0.00375093773443361        1.87099400519619        1.83080748936593      0.0115262560460692        7.08479624127692        2.47560709517615        1.85241092864943   1.23361921945878E-021                       0                       0                       0                       0   1.23361921945878E-021                       0                       0       0.930368363857269       0.997190117835999                       0                       0                       0                       3 
                 1.0501     0.00400100025006252         1.8709349818352        1.83081188928921      0.0122309517985987         7.0841443371978        2.47533140242276        1.85226308407311   1.23361921945878E-021                       0                       0                       0                       0   1.23361921945878E-021                       0                       0       0.930368363857269       0.997190117835999                       0                       0                       0                       3 
                 1.0501     0.00425106276569142        1.87087595847422        1.83081628921248      0.0129356475511282        7.08349243311868        2.47505570966937        1.85211523949678   1.23361921945878E-021                       0                       0                       0                       0   1.23361921945878E-021                       0                       0       0.930368363857269       0.997190117835999                       0                       0                       0                       3 
                 1.0501     0.00450112528132033        1.87081693511324        1.83082068913575      0.0136403433036577        7.08284052903957        2.47478001691599        1.85196739492045   1.23361921945878E-021                       0                       0                       0                       0   1.23361921945878E-021                       0                       0       0.930368363857269       0.997190117835999                       0                       0                       0                       3 
                 1.0501     0.00475118779694924        1.87075791175226        1.83082508905903      0.0143450390561873        7.08218862496045         2.4745043241626        1.85181955034412   1.23361921945878E-021                       0                       0                       0                       0   1.23361921945878E-021                       0                       0       0.930368363857269       0.997190117835999                       0                       0                       0                       3 
                 1.0501     0.00500125031257814        1.87079484018298        1.83067352063884       0.015073195467905        7.08171663748734        2.47437983087334        1.85168978583495   1.27627441948164E-009                       0                       0                       0                       0   1.27627441948164E-009                       0                       0       0.955250799655914         0.9942267537117                       0                       0                       0                       4 
                 1.0501     0.00525131282820705        1.87062136534189        1.83048911269545      0.0156686818431058        7.08056821824727        2.47395727573988        1.85154520006982   1.27627441948164E-009                       0                       0                       0                       0   1.27627441948164E-009                       0                       0       0.955250799655914         0.9942267537117                       0                       0                       0                       4 
                 1.0501     0.00550137534383596        1.87045509836904        1.83031468976955      0.0162764498604802        7.07945979560944        2.47354811876152        1.85140349038546   1.27627441948164E-009                       0                       0                       0                       0   1.27627441948164E-009                       0                       0       0.955250799655914         0.9942267537117                       0                       0                       0                       4 
                 1.0501     0.00575143785946487        1.87028883139619        1.83014026684364      0.0168842178778546        7.07835137297162        2.47313896178316        1.85126178070109   1.27627441948164E-009                       0                       0                       0                       0   1.27627441948164E-009                       0                       0       0.955250799655914         0.9942267537117                       0                       0                       0                       4 
                 1.0501     0.00600150037509377        1.87012256442335        1.82996584391774       0.017491985895229        7.07724295033379         2.4727298048048        1.85112007101672   1.27627441948164E-009                       0                       0                       0                       0   1.27627441948164E-009                       0                       0       0.955250799655914         0.9942267537117                       0                       0                       0                       4 
                 1.0501     0.00625156289072268         1.8699562974505        1.82979142099184      0.0180997539126034        7.07613452769596        2.47232064782644        1.85097836133236   1.27627441948164E-009                       0                       0                       0                       0   1.27627441948164E-009                       0                       0       0.955250799655914         0.9942267537117                       0                       0                       0                       4 
                 1.0501     0.00650162540635159        1.86979003047765        1.82961699806593      0.0187075219299778        7.07502610505814        2.47191149084808        1.85083665164799   1.27627441948164E-009                       0                       0                       0                       0   1.27627441948164E-009                       0                       0       0.955250799655914         0.9942267537117                       0                       0                       0                       4 
                 1.0501     0.00675168792198049        1.86958079387617        1.82938923101571      0.0192699134060713        7.07373310639874        2.47144121799542        1.85069164596324   1.27627441948164E-009                       0                       0                       0                       0   1.27627441948164E-009                       0                       0       0.955250799655914         0.9942267537117                       0                       0                       0                       4 
                 1.0501      0.0070017504376094        1.86930529269273        1.82908170097083      0.0197734381292178        7.07217702997153        2.47088414826838        1.85054708424665   1.27627441948164E-009                       0                       0                       0                       0   1.27627441948164E-009                       0                       0       0.955250799655914         0.9942267537117                       0                       0                       0                       4 
                 1.0501     0.00725181295323831        1.86903088779843        1.82877569175843      0.0202788308262915        7.07062704117346        2.47032911419982        1.85040295997092   1.27627441948164E-009                       0                       0                       0                       0   1.27627441948164E-009                       0                       0       0.955250799655914         0.9942267537117                       0                       0                       0                       4 
                 1.0501     0.00750187546886722        1.86875648290413        1.82846968254604      0.0207842235233652        7.06907705237539        2.46977408013126        1.85025883569518   1.27627441948164E-009                       0                       0                       0                       0   1.27627441948164E-009                       0                       0       0.955250799655914         0.9942267537117                       0                       0                       0                       4 
                 1.0501     0.00775193798449612        1.86848207800983        1.82816367333364      0.0212896162204389        7.06752706357732        2.46921904606269        1.85011471141945   1.27627441948164E-009                       0                       0                       0                       0   1.27627441948164E-009                       0                       0       0.955250799655914         0.9942267537117                       0                       0                       0                       4 
                 1.0501     0.00800200050012503        1.86820767311553        1.82785766412124      0.0217950089175127        7.06597707477925        2.46866401199413        1.84997058714372   1.27627441948164E-009                       0                       0                       0                       0   1.27627441948164E-009                       0                       0       0.955250799655914         0.9942267537117                       0                       0                       0                       4 
                 1.0501     0.00825206301575394        1.86793326822123        1.82755165490885      0.0223004016145864        7.06442708598118        2.46810897792557        1.84982646286799   1.27627441948164E-009                       0                       0                       0                       0   1.27627441948164E-009                       0                       0       0.955250799655914         0.9942267537117                       0                       0                       0                       4 
                 1.0501     0.00850212553138285        1.86757857833528        1.82714668947846      0.0227242542930215        7.06253853722383        2.46744209689309        1.84967778905429   1.27627441948164E-009                       0                       0                       0                       0   1.27627441948164E-009                       0                       0       0.955250799655914         0.9942267537117                       0                       0                       0                       4 
                 1.0501     0.00875218804701175        1.86719603530577         1.8267090579633      0.0231272721744648        7.06054698115265        2.46674139997312        1.84953125010531   1.27627441948164E-009                       0                       0                       0                       0   1.27627441948164E-009                       0                       0       0.955250799655914         0.9942267537117                       0                       0                       0                       4 
                 1.0501     0.00900225056264066        1.86681349227625        1.82627142644814      0.0235302900559082        7.05855542508146        2.46604070305316        1.84938471115633   1.27627441948164E-009                       0                       0                       0                       0   1.27627441948164E-009                       0                       0       0.955250799655914         0.9942267537117                       0                       0                       0                       4 
                 1.0501     0.00925231307826957        1.86643094924674        1.82583379493299      0.0239333079373516        7.05656386901028        2.46534000613319        1.84923817220735   1.27627441948164E-009                       0                       0                       0                       0   1.27627441948164E-009                       0                       0       0.955250799655914         0.9942267537117                       0                       0                       0                       4 
                 1.0501     0.00950237559389847        1.86604840621722        1.82539616341783       0.024336325818795         7.0545723129391        2.46463930921322        1.84909163325837   1.27627441948164E-009                       0                       0                       0                       0   1.27627441948164E-009                       0                       0       0.955250799655914         0.9942267537117                       0                       0                       0                       4 
                 1.0501     0.00975243810952738         1.8656658631877        1.82495853190267      0.0247393437002384        7.05258075686791        2.46393861229325        1.84894509430939   1.27627441948164E-009                       0                       0                       0                       0   1.27627441948164E-009                       0                       0       0.955250799655914         0.9942267537117                       0                       0                       0                       4 
                 1.0501      0.0100025006251563        1.86551592781736        1.82475914160133      0.0253809546097817        7.05177121207428        2.46366081114976        1.84888535761948   2.86956446779979E-021                       0                       0                       0                       0   2.86956446779979E-021                       0                       0       0.794518351554871        0.99871438741684                       0                       0                       0                       4 
                 1.0501      0.0102525631407852        1.86498748216222        1.82395211650755      0.0256154441474354        7.04899756186833        2.46276460033252        1.84873624014282   2.86956446779979E-021                       0                       0                       0                       0   2.86956446779979E-021                       0                       0       0.794518351554871        0.99871438741684                       0                       0                       0                       4 
                 1.0501      0.0105026256564141        1.86445900859867        1.82314576819248      0.0258503612505105        7.04622460937239        2.46186837556107        1.84858714359747   2.86956446779979E-021                       0                       0                       0                       0   2.86956446779979E-021                       0                       0       0.794518351554871        0.99871438741684                       0                       0                       0                       4 
                 1.0501       0.010752688172043        1.86393053503513        1.82233941987742      0.0260852783535855        7.04345165687646        2.46097215078962        1.84843804705211   2.86956446779979E-021                       0                       0                       0                       0   2.86956446779979E-021                       0                       0       0.794518351554871        0.99871438741684                       0                       0                       0                       4 
                 1.0501      0.0110027506876719        1.86340206147159        1.82153307156236      0.0263201954566606        7.04067870438052        2.46007592601817        1.84828895050675   2.86956446779979E-021                       0                       0                       0                       0   2.86956446779979E-021                       0                       0       0.794518351554871        0.99871438741684                       0                       0                       0                       4 
                 1.0501      0.0112528132033008        1.86287358790805        1.82072672324729      0.0265551125597356        7.03790575188459        2.45917970124672        1.84813985396139   2.86956446779979E-021                       0                       0                       0                       0   2.86956446779979E-021                       0                       0       0.794518351554871        0.99871438741684                       0                       0                       0                       4 
                 1.0501      0.0115028757189297         1.8623451143445        1.81992037493223      0.0267900296628107        7.03513279938865        2.45828347647527        1.84799075741603   2.86956446779979E-021                       0                       0                       0                       0   2.86956446779979E-021                       0                       0       0.794518351554871        0.99871438741684                       0                       0                       0                       4 
                 1.0501      0.0117529382345586        1.86181921392901        1.81912000594681      0.0270138823642513        7.03234656772101        2.45738010612723        1.84783352182444   2.86956446779979E-021                       0                       0                       0                       0   2.86956446779979E-021                       0                       0       0.794518351554871        0.99871438741684                       0                       0                       0                       4 
                 1.0501      0.0120030007501875        1.86129813116788        1.81833264528158       0.027217764403619        7.02953667969667        2.45646313572661        1.84766086762816   2.86956446779979E-021                       0                       0                       0                       0   2.86956446779979E-021                       0                       0       0.794518351554871        0.99871438741684                       0                       0                       0                       4 
                 1.0501      0.0122530632658165        1.86077704446533        1.81754538118123      0.0274217068268327        7.02672688232508        2.45554616335528         1.8474882154026   2.86956446779979E-021                       0                       0                       0                       0   2.86956446779979E-021                       0                       0       0.794518351554871        0.99871438741684                       0                       0                       0                       4 
                 1.0501      0.0125031257814454        1.86025595776278        1.81675811708089      0.0276256492500465         7.0239170849535        2.45462919098395        1.84731556317703   2.86956446779979E-021                       0                       0                       0                       0   2.86956446779979E-021                       0                       0       0.794518351554871        0.99871438741684                       0                       0                       0                       4 
                 1.0501      0.0127531882970743        1.85973487106023        1.81597085298054      0.0278295916732602        7.02110728758191        2.45371221861262        1.84714291095146   2.86956446779979E-021                       0                       0                       0                       0   2.86956446779979E-021                       0                       0       0.794518351554871        0.99871438741684                       0                       0                       0                       4 
                 1.0501      0.0130032508127032        1.85921378435768         1.8151835888802      0.0280335340964739        7.01829749021032        2.45279524624129        1.84697025872589   2.86956446779979E-021                       0                       0                       0                       0   2.86956446779979E-021                       0                       0       0.794518351554871        0.99871438741684                       0                       0                       0                       4 
                 1.0501      0.0132533133283321        1.85869269765513        1.81439632477985      0.0282374765196876        7.01548769283874        2.45187827386995        1.84679760650032   2.86956446779979E-021                       0                       0                       0                       0   2.86956446779979E-021                       0                       0       0.794518351554871        0.99871438741684                       0                       0                       0                       4 
                 1.0501       0.013503375843961         1.8581766745996        1.81362134349943      0.0284199179292677        7.01265227026857        2.45094722142508        1.84660886625066   2.86956446779979E-021                       0                       0                       0                       0   2.86956446779979E-021                       0                       0       0.794518351554871        0.99871438741684                       0                       0                       0                       4 