VARIABLES = "x"
 "y"
 "rho"
 "rhoU"
 "rhoV"
 "rhoE"
 "P"
 "T"
 "ABV"
 "error"
 "error_hMLP"
 "error_BD"
 "ABV_P"
 "ABV_I"
 "ABV_I_BD"
 "ABV_D"
 "Ducros"
 "Sk"
 "trouble_vertex"
 "trouble_face"
 "hMLP_penalty"
 "BD_penalty"
ZONE
DT=(DOUBLE,DOUBLE,DOUBLE,DOUBLE,DOUBLE,DOUBLE,DOUBLE,DOUBLE,DOUBLE,DOUBLE,DOUBLE,DOUBLE,DOUBLE,DOUBLE,DOUBLE,DOUBLE,DOUBLE,DOUBLE,DOUBLE,DOUBLE,DOUBLE,DOUBLE)
                 0.5201                       0        1.94109015396485        1.71691388087497   -0.000273153120349058        7.33610520613408        2.63071640906293        1.89738893441984   1.59440496361185E-008                       0                       0                       0                       0   1.58987756293527E-008   4.52727647037854E-011                       0      0.0207189600914717       0.994709730148315                       0                       0                       0                       3 
                 0.5201    0.000250062515628907         1.9411153259291         1.7170946980934   -0.000580432556261565        7.33626621960503        2.63072065836705        1.89736740373213   1.59440496361185E-008                       0                       0                       0                       0   1.58987756293527E-008   4.52727647037854E-011                       0      0.0207189600914717       0.994709730148315                       0                       0                       0                       3 
                 0.5201    0.000500125031257815        1.94113018908247        1.71724608405024   -0.000822556582033999        7.33638891663526        2.63071844051985        1.89735128856825   1.59440496361185E-008                       0                       0                       0                       0   1.58987756293527E-008   4.52727647037854E-011                       0      0.0207189600914717       0.994709730148315                       0                       0                       0                       3 
                 0.5201    0.000750187546886722        1.94114505223584        1.71739747000707    -0.00106468060780643         7.3365116136655        2.63071622267266        1.89733517340436   1.59440496361185E-008                       0                       0                       0                       0   1.58987756293527E-008   4.52727647037854E-011                       0      0.0207189600914717       0.994709730148315                       0                       0                       0                       3 
                 0.5201     0.00100025006251563        1.94115991538921        1.71754885596391    -0.00130680463357887        7.33663431069573        2.63071400482547        1.89731905824048   1.59440496361185E-008                       0                       0                       0                       0   1.58987756293527E-008   4.52727647037854E-011                       0      0.0207189600914717       0.994709730148315                       0                       0                       0                       3 
                 0.5201     0.00125031257814454        1.94117477854258        1.71770024192075     -0.0015489286593513        7.33675700772597        2.63071178697827         1.8973029430766   1.59440496361185E-008                       0                       0                       0                       0   1.58987756293527E-008   4.52727647037854E-011                       0      0.0207189600914717       0.994709730148315                       0                       0                       0                       3 
                 0.5201     0.00150037509377344        1.94118964169595        1.71785162787759    -0.00179105268512373        7.33687970475621        2.63070956913108        1.89728682791271   1.59440496361185E-008                       0                       0                       0                       0   1.58987756293527E-008   4.52727647037854E-011                       0      0.0207189600914717       0.994709730148315                       0                       0                       0                       3 
                 0.5201     0.00175043760940235        1.94123467936129        1.71809936735448     -0.0021084845994769        7.33709865344654        2.63071626702531        1.89724766244153   1.59440496361185E-008                       0                       0                       0                       0   1.58987756293527E-008   4.52727647037854E-011                       0      0.0207189600914717       0.994709730148315                       0                       0                       0                       3 
                 0.5201     0.00200050012503126        1.94131551687967         1.7184695746053    -0.00242309495570689        7.33741916377326        2.63072581270085        1.89717556743321   1.59440496361185E-008                       0                       0                       0                       0   1.58987756293527E-008   4.52727647037854E-011                       0      0.0207189600914717       0.994709730148315                       0                       0                       0                       3 
                 0.5201     0.00225056264066016         1.9413946797158        1.71883500070219    -0.00272712071389543        7.33773345418365        2.63073432637233        1.89710436380678   1.59440496361185E-008                       0                       0                       0                       0   1.58987756293527E-008   4.52727647037854E-011                       0      0.0207189600914717       0.994709730148315                       0                       0                       0                       3 
                 0.5201     0.00250062515628907        1.94147384255192        1.71920042679909    -0.00303114647208397        7.33804774459404        2.63074284004382        1.89703316018034   1.59440496361185E-008                       0                       0                       0                       0   1.58987756293527E-008   4.52727647037854E-011                       0      0.0207189600914717       0.994709730148315                       0                       0                       0                       3 
                 0.5201     0.00275068767191798        1.94155300538805        1.71956585289599     -0.0033351722302725        7.33836203500444        2.63075135371531         1.8969619565539   1.59440496361185E-008                       0                       0                       0                       0   1.58987756293527E-008   4.52727647037854E-011                       0      0.0207189600914717       0.994709730148315                       0                       0                       0                       3 
                 0.5201     0.00300075018754689        1.94163216822417        1.71993127899289    -0.00363919798846104        7.33867632541483        2.63075986738679        1.89689075292746   1.59440496361185E-008                       0                       0                       0                       0   1.58987756293527E-008   4.52727647037854E-011                       0      0.0207189600914717       0.994709730148315                       0                       0                       0                       3 
                 0.5201     0.00325081270317579         1.9417113310603        1.72029670508979    -0.00394322374664957        7.33899061582522        2.63076838105828        1.89681954930102   1.59440496361185E-008                       0                       0                       0                       0   1.58987756293527E-008   4.52727647037854E-011                       0      0.0207189600914717       0.994709730148315                       0                       0                       0                       3 
                 0.5201      0.0035008752188047        1.94184388348742         1.7208349813108    -0.00435387906861357        7.33947163816064        2.63079013634534        1.89670581073668   1.59440496361185E-008                       0                       0                       0                       0   1.58987756293527E-008   4.52727647037854E-011                       0      0.0207189600914717       0.994709730148315                       0                       0                       0                       3 
                 0.5201     0.00375093773443361        1.94198734602634        1.72141446551458    -0.00471980657977102        7.33997759356533        2.63080916690779        1.89657942920071   1.59440496361185E-008                       0                       0                       0                       0   1.58987756293527E-008   4.52727647037854E-011                       0      0.0207189600914717       0.994709730148315                       0                       0                       0                       3 
                 0.5201     0.00400100025006252        1.94213080856526        1.72199394971836    -0.00508573409092848        7.34048354897002        2.63082819747024        1.89645304766474   1.59440496361185E-008                       0                       0                       0                       0   1.58987756293527E-008   4.52727647037854E-011                       0      0.0207189600914717       0.994709730148315                       0                       0                       0                       3 
                 0.5201     0.00425106276569142        1.94227427110418        1.72257343392214    -0.00545166160208594         7.3409895043747        2.63084722803269        1.89632666612877   1.59440496361185E-008                       0                       0                       0                       0   1.58987756293527E-008   4.52727647037854E-011                       0      0.0207189600914717       0.994709730148315                       0                       0                       0                       3 
                 0.5201     0.00450112528132033        1.94241773364311        1.72315291812592     -0.0058175891132434        7.34149545977939        2.63086625859514         1.8962002845928   1.59440496361185E-008                       0                       0                       0                       0   1.58987756293527E-008   4.52727647037854E-011                       0      0.0207189600914717       0.994709730148315                       0                       0                       0                       3 
                 0.5201     0.00475118779694924        1.94256119618203        1.72373240232969    -0.00618351662440085        7.34200141518408        2.63088528915759        1.89607390305683   1.59440496361185E-008                       0                       0                       0                       0   1.58987756293527E-008   4.52727647037854E-011                       0      0.0207189600914717       0.994709730148315                       0                       0                       0                       3 
                 0.5201     0.00500125031257814        1.94247838024734        1.72030042853478    -0.00590259466795903        7.34003835465885         2.6313045811939        1.89645667313342   2.21628937424612E-008                       0                       0                       0                       0     2.201503512822E-008   1.47859072208156E-010                       0     0.00083533936413005       0.994771659374237                       0                       0                       0                       4 
                 0.5201     0.00525131282820705        1.94270571365321        1.72121348315253    -0.00657498453783356        7.34088543983604        2.63135368841283        1.89627035604545   2.21628937424612E-008                       0                       0                       0                       0     2.201503512822E-008   1.47859072208156E-010                       0     0.00083533936413005       0.994771659374237                       0                       0                       0                       4 
                 0.5201     0.00550137534383596        1.94292240087094        1.72212001018047    -0.00721404212405323         7.3417209957637        2.63139940467602         1.8960919088006   2.21628937424612E-008                       0                       0                       0                       0     2.201503512822E-008   1.47859072208156E-010                       0     0.00083533936413005       0.994771659374237                       0                       0                       0                       4 
                 0.5201     0.00575143785946487        1.94313908808867        1.72302653720841    -0.00785309971027291        7.34255655169135        2.63144512093921        1.89591346155576   2.21628937424612E-008                       0                       0                       0                       0     2.201503512822E-008   1.47859072208156E-010                       0     0.00083533936413005       0.994771659374237                       0                       0                       0                       4 
                 0.5201     0.00600150037509377         1.9433557753064        1.72393306423635    -0.00849215729649258        7.34339210761901        2.63149083720239        1.89573501431091   2.21628937424612E-008                       0                       0                       0                       0     2.201503512822E-008   1.47859072208156E-010                       0     0.00083533936413005       0.994771659374237                       0                       0                       0                       4 
                 0.5201     0.00625156289072268        1.94357246252414        1.72483959126429    -0.00913121488271225        7.34422766354666        2.63153655346558        1.89555656706606   2.21628937424612E-008                       0                       0                       0                       0     2.201503512822E-008   1.47859072208156E-010                       0     0.00083533936413005       0.994771659374237                       0                       0                       0                       4 
                 0.5201     0.00650162540635159        1.94378914974187        1.72574611829223    -0.00977027246893193        7.34506321947432        2.63158226972877        1.89537811982122   2.21628937424612E-008                       0                       0                       0                       0     2.201503512822E-008   1.47859072208156E-010                       0     0.00083533936413005       0.994771659374237                       0                       0                       0                       4 
                 0.5201     0.00675168792198049        1.94402071761078        1.72663957686108     -0.0104405380848597        7.34592030278457        2.63164266596415        1.89519590224383   2.21628937424612E-008                       0                       0                       0                       0     2.201503512822E-008   1.47859072208156E-010                       0     0.00083533936413005       0.994771659374237                       0                       0                       0                       4 
                 0.5201      0.0070017504376094        1.94425583416837        1.72749213185335      -0.011092055031172        7.34679173565982        2.63172355565536         1.8950250619485   2.21628937424612E-008                       0                       0                       0                       0     2.201503512822E-008   1.47859072208156E-010                       0     0.00083533936413005       0.994771659374237                       0                       0                       0                       4 
                 0.5201     0.00725181295323831        1.94448933409635        1.72834369562747     -0.0117385104474479        7.34766141781211        2.63180393471904        1.89485541454774   2.21628937424612E-008                       0                       0                       0                       0     2.201503512822E-008   1.47859072208156E-010                       0     0.00083533936413005       0.994771659374237                       0                       0                       0                       4 
                 0.5201     0.00750187546886722        1.94472283402433        1.72919525940158     -0.0123849658637238         7.3485310999644        2.63188431378272        1.89468576714699   2.21628937424612E-008                       0                       0                       0                       0     2.201503512822E-008   1.47859072208156E-010                       0     0.00083533936413005       0.994771659374237                       0                       0                       0                       4 
                 0.5201     0.00775193798449612        1.94495633395231         1.7300468231757     -0.0130314212799996        7.34940078211669         2.6319646928464        1.89451611974623   2.21628937424612E-008                       0                       0                       0                       0     2.201503512822E-008   1.47859072208156E-010                       0     0.00083533936413005       0.994771659374237                       0                       0                       0                       4 
                 0.5201     0.00800200050012503        1.94518983388029        1.73089838694982     -0.0136778766962755        7.35027046426898        2.63204507191009        1.89434647234547   2.21628937424612E-008                       0                       0                       0                       0     2.201503512822E-008   1.47859072208156E-010                       0     0.00083533936413005       0.994771659374237                       0                       0                       0                       4 
                 0.5201     0.00825206301575394        1.94542333380827        1.73174995072393     -0.0143243321125514        7.35114014642127        2.63212545097377        1.89417682494471   2.21628937424612E-008                       0                       0                       0                       0     2.201503512822E-008   1.47859072208156E-010                       0     0.00083533936413005       0.994771659374237                       0                       0                       0                       4 
                 0.5201     0.00850212553138285        1.94567896827002        1.73257102000858     -0.0150095357975519        7.35204460723573        2.63223268634075        1.89400525877779   2.21628937424612E-008                       0                       0                       0                       0     2.201503512822E-008   1.47859072208156E-010                       0     0.00083533936413005       0.994771659374237                       0                       0                       0                       4 
                 0.5201     0.00875218804701175          1.945929298934        1.73336760308814     -0.0156633896188532        7.35294855920467        2.63234787135618        1.89384455421821   2.21628937424612E-008                       0                       0                       0                       0     2.201503512822E-008   1.47859072208156E-010                       0     0.00083533936413005       0.994771659374237                       0                       0                       0                       4 
                 0.5201     0.00900225056264066        1.94617962959797        1.73416418616769     -0.0163172434401545        7.35385251117361        2.63246305637162        1.89368384965863   2.21628937424612E-008                       0                       0                       0                       0     2.201503512822E-008   1.47859072208156E-010                       0     0.00083533936413005       0.994771659374237                       0                       0                       0                       4 
                 0.5201     0.00925231307826957        1.94642996026195        1.73496076924725     -0.0169710972614557        7.35475646314255        2.63257824138705        1.89352314509906   2.21628937424612E-008                       0                       0                       0                       0     2.201503512822E-008   1.47859072208156E-010                       0     0.00083533936413005       0.994771659374237                       0                       0                       0                       4 
                 0.5201     0.00950237559389847        1.94668029092592         1.7357573523268      -0.017624951082757        7.35566041511149        2.63269342640248        1.89336244053948   2.21628937424612E-008                       0                       0                       0                       0     2.201503512822E-008   1.47859072208156E-010                       0     0.00083533936413005       0.994771659374237                       0                       0                       0                       4 
                 0.5201     0.00975243810952738         1.9469306215899        1.73655393540636     -0.0182788049040582        7.35656436708043        2.63280861141792        1.89320173597991   2.21628937424612E-008                       0                       0                       0                       0     2.201503512822E-008   1.47859072208156E-010                       0     0.00083533936413005       0.994771659374237                       0                       0                       0                       4 
                 0.5201      0.0100025006251563        1.94714564686464         1.7357136870207     -0.0178761947025961        7.35780739396488        2.63364156152503        1.89359152629399   2.59582026984617E-008                       0                       0                       0                       0   2.58428087818174E-008    1.1539375704972E-010                       0     0.00982063170522451       0.994556546211243                       0                       0                       0                       4 
                 0.5201      0.0102525631407852        1.94746690026485        1.73645474301677     -0.0187939026610333        7.35877804617458        2.63381199069385        1.89340202178852   2.59582026984617E-008                       0                       0                       0                       0   2.58428087818174E-008    1.1539375704972E-010                       0     0.00982063170522451       0.994556546211243                       0                       0                       0                       4 
                 0.5201      0.0105026256564141        1.94780367315982        1.73725960680529     -0.0197634658942786        7.35981914642796        2.63399070622663        1.89320318466104   2.59582026984617E-008                       0                       0                       0                       0   2.58428087818174E-008    1.1539375704972E-010                       0     0.00982063170522451       0.994556546211243                       0                       0                       0                       4 
                 0.5201       0.010752688172043         1.9481404460548        1.73806447059382      -0.020733029127524        7.36086024668134         2.6341694217594        1.89300434753355   2.59582026984617E-008                       0                       0                       0                       0   2.58428087818174E-008    1.1539375704972E-010                       0     0.00982063170522451       0.994556546211243                       0                       0                       0                       4 
                 0.5201      0.0110027506876719        1.94847721894978        1.73886933438234     -0.0217025923607693        7.36190134693472        2.63434813729218        1.89280551040606   2.59582026984617E-008                       0                       0                       0                       0   2.58428087818174E-008    1.1539375704972E-010                       0     0.00982063170522451       0.994556546211243                       0                       0                       0                       4 
                 0.5201      0.0112528132033008        1.94881399184476        1.73967419817086     -0.0226721555940146        7.36294244718811        2.63452685282495        1.89260667327857   2.59582026984617E-008                       0                       0                       0                       0   2.58428087818174E-008    1.1539375704972E-010                       0     0.00982063170522451       0.994556546211243                       0                       0                       0                       4 
                 0.5201      0.0115028757189297        1.94915076473974        1.74047906195938     -0.0236417188272599        7.36398354744149        2.63470556835773        1.89240783615108   2.59582026984617E-008                       0                       0                       0                       0   2.58428087818174E-008    1.1539375704972E-010                       0     0.00982063170522451       0.994556546211243                       0                       0                       0                       4 
                 0.5201      0.0117529382345586         1.9494949053536        1.74126844983588     -0.0245196508777539        7.36501413296039        2.63488630785348        1.89220367995016   2.59582026984617E-008                       0                       0                       0                       0   2.58428087818174E-008    1.1539375704972E-010                       0     0.00982063170522451       0.994556546211243                       0                       0                       0                       4 
                 0.5201      0.0120030007501875        1.94989064214676        1.74218308043154     -0.0253492765036888        7.36619547148377        2.63509046310461        1.89196647154356   2.59582026984617E-008                       0                       0                       0                       0   2.58428087818174E-008    1.1539375704972E-010                       0     0.00982063170522451       0.994556546211243                       0                       0                       0                       4 
                 0.5201      0.0122530632658165         1.9502885668038        1.74310670634352     -0.0261862124373822        7.36738674143423        2.63529575702827        1.89172792780251   2.59582026984617E-008                       0                       0                       0                       0   2.58428087818174E-008    1.1539375704972E-010                       0     0.00982063170522451       0.994556546211243                       0                       0                       0                       4 
                 0.5201      0.0125031257814454        1.95068649146084         1.7440303322555     -0.0270231483710756        7.36857801138469        2.63550105095193        1.89148938406145   2.59582026984617E-008                       0                       0                       0                       0   2.58428087818174E-008    1.1539375704972E-010                       0     0.00982063170522451       0.994556546211243                       0                       0                       0                       4 
                 0.5201      0.0127531882970743        1.95108441611789        1.74495395816748      -0.027860084304769        7.36976928133514        2.63570634487559         1.8912508403204   2.59582026984617E-008                       0                       0                       0                       0   2.58428087818174E-008    1.1539375704972E-010                       0     0.00982063170522451       0.994556546211243                       0                       0                       0                       4 
                 0.5201      0.0130032508127032        1.95148234077493        1.74587758407946     -0.0286970202384624         7.3709605512856        2.63591163879924        1.89101229657934   2.59582026984617E-008                       0                       0                       0                       0   2.58428087818174E-008    1.1539375704972E-010                       0     0.00982063170522451       0.994556546211243                       0                       0                       0                       4 
                 0.5201      0.0132533133283321        1.95188026543198        1.74680120999145     -0.0295339561721558        7.37215182123606         2.6361169327229        1.89077375283828   2.59582026984617E-008                       0                       0                       0                       0   2.58428087818174E-008    1.1539375704972E-010                       0     0.00982063170522451       0.994556546211243                       0                       0                       0                       4 
                 0.5201       0.013503375843961        1.95230384873801        1.74774014309886     -0.0302275211843217        7.37337302948434        2.63633242497279         1.8905184050598   2.59582026984617E-008                       0                       0                       0                       0   2.58428087818174E-008    1.1539375704972E-010                       0     0.00982063170522451       0.994556546211243                       0                       0                       0                       4 