VARIABLES = "x"
 "y"
 "rho"
 "rhoU"
 "rhoV"
 "rhoE"
 "P"
 "T"
 "ABV"
 "error"
 "error_hMLP"
 "error_BD"
 "ABV_P"
 "ABV_I"
 "ABV_I_BD"
 "ABV_D"
 "Ducros"
 "Sk"
 "trouble_vertex"
 "trouble_face"
 "hMLP_penalty"
 "BD_penalty"
ZONE
DT=(DOUBLE,DOUBLE,DOUBLE,DOUBLE,DOUBLE,DOUBLE,DOUBLE,DOUBLE,DOUBLE,DOUBLE,DOUBLE,DOUBLE,DOUBLE,DOUBLE,DOUBLE,DOUBLE,DOUBLE,DOUBLE,DOUBLE,DOUBLE,DOUBLE,DOUBLE)
                 0.5201                       0        1.95853647093608        1.73129368315798    -0.00198416795612799        7.39835187178717        2.65325618203391        1.89659857158404   6.72604874125682E-005    0.000845109287183732    0.000845109287183732                       0   8.02853810455417E-006   3.14418175548781E-005   2.77901090157684E-005   2.37098778110845E-011       0.929734528064728       0.984755635261536                       1                       0                       0                       3 
                 0.5201    0.000250062515628907        1.95850139491764        1.73110221383874    -0.00223422769784046        7.39808170203321        2.65321030762674        1.89659972472278   6.72604874125682E-005    0.000845109287183732    0.000845109287183732                       0   8.02853810455417E-006   3.14418175548781E-005   2.77901090157684E-005   2.37098778110845E-011       0.929734528064728       0.984755635261536                       1                       0                       0                       3 
                 0.5201    0.000500125031257815         1.9584552851569        1.73089136929664    -0.00244216158318056        7.39776757854293        2.65315176122767        1.89660253280364   6.72604874125682E-005    0.000845109287183732    0.000845109287183732                       0   8.02853810455417E-006   3.14418175548781E-005   2.77901090157684E-005   2.37098778110845E-011       0.929734528064728       0.984755635261536                       1                       0                       0                       3 
                 0.5201    0.000750187546886722        1.95840917539616        1.73068052475455    -0.00265009546852067        7.39745345505264        2.65309321482859        1.89660534088449   6.72604874125682E-005    0.000845109287183732    0.000845109287183732                       0   8.02853810455417E-006   3.14418175548781E-005   2.77901090157684E-005   2.37098778110845E-011       0.929734528064728       0.984755635261536                       1                       0                       0                       3 
                 0.5201     0.00100025006251563        1.95836306563542        1.73046968021245    -0.00285802935386078        7.39713933156236        2.65303466842951        1.89660814896534   6.72604874125682E-005    0.000845109287183732    0.000845109287183732                       0   8.02853810455417E-006   3.14418175548781E-005   2.77901090157684E-005   2.37098778110845E-011       0.929734528064728       0.984755635261536                       1                       0                       0                       3 
                 0.5201     0.00125031257814454        1.95831695587468        1.73025883567036    -0.00306596323920089        7.39682520807207        2.65297612203043        1.89661095704619   6.72604874125682E-005    0.000845109287183732    0.000845109287183732                       0   8.02853810455417E-006   3.14418175548781E-005   2.77901090157684E-005   2.37098778110845E-011       0.929734528064728       0.984755635261536                       1                       0                       0                       3 
                 0.5201     0.00150037509377344        1.95827084611394        1.73004799112826      -0.003273897124541        7.39651108458179        2.65291757563136        1.89661376512704   6.72604874125682E-005    0.000845109287183732    0.000845109287183732                       0   8.02853810455417E-006   3.14418175548781E-005   2.77901090157684E-005   2.37098778110845E-011       0.929734528064728       0.984755635261536                       1                       0                       0                       3 
                 0.5201     0.00175043760940235         1.9582247363532        1.72983714658617    -0.00348183100988111         7.3961969610915        2.65285902923228         1.8966165732079   6.72604874125682E-005    0.000845109287183732    0.000845109287183732                       0   8.02853810455417E-006   3.14418175548781E-005   2.77901090157684E-005   2.37098778110845E-011       0.929734528064728       0.984755635261536                       1                       0                       0                       3 
                 0.5201     0.00200050012503126        1.95817862659246        1.72962630204407    -0.00368976489522121        7.39588283760122         2.6528004828332        1.89661938128875   6.72604874125682E-005    0.000845109287183732    0.000845109287183732                       0   8.02853810455417E-006   3.14418175548781E-005   2.77901090157684E-005   2.37098778110845E-011       0.929734528064728       0.984755635261536                       1                       0                       0                       3 
                 0.5201     0.00225056264066016        1.95813251683172        1.72941545750198    -0.00389769878056132        7.39556871411093        2.65274193643412         1.8966221893696   6.72604874125682E-005    0.000845109287183732    0.000845109287183732                       0   8.02853810455417E-006   3.14418175548781E-005   2.77901090157684E-005   2.37098778110845E-011       0.929734528064728       0.984755635261536                       1                       0                       0                       3 
                 0.5201     0.00250062515628907        1.95808640707098        1.72920461295988    -0.00410563266590143        7.39525459062065        2.65268339003505        1.89662499745045   6.72604874125682E-005    0.000845109287183732    0.000845109287183732                       0   8.02853810455417E-006   3.14418175548781E-005   2.77901090157684E-005   2.37098778110845E-011       0.929734528064728       0.984755635261536                       1                       0                       0                       3 
                 0.5201     0.00275068767191798        1.95804029731024        1.72899376841779    -0.00431356655124154        7.39494046713037        2.65262484363597         1.8966278055313   6.72604874125682E-005    0.000845109287183732    0.000845109287183732                       0   8.02853810455417E-006   3.14418175548781E-005   2.77901090157684E-005   2.37098778110845E-011       0.929734528064728       0.984755635261536                       1                       0                       0                       3 
                 0.5201     0.00300075018754689         1.9579941875495        1.72878292387569    -0.00452150043658165        7.39462634364008        2.65256629723689        1.89663061361215   6.72604874125682E-005    0.000845109287183732    0.000845109287183732                       0   8.02853810455417E-006   3.14418175548781E-005   2.77901090157684E-005   2.37098778110845E-011       0.929734528064728       0.984755635261536                       1                       0                       0                       3 
                 0.5201     0.00325081270317579        1.95794807778876         1.7285720793336    -0.00472943432192176         7.3943122201498        2.65250775083781        1.89663342169301   6.72604874125682E-005    0.000845109287183732    0.000845109287183732                       0   8.02853810455417E-006   3.14418175548781E-005   2.77901090157684E-005   2.37098778110845E-011       0.929734528064728       0.984755635261536                       1                       0                       0                       3 
                 0.5201      0.0035008752188047        1.95790196802802         1.7283612347915    -0.00493736820726186        7.39399809665951        2.65244920443874        1.89663622977386   6.72604874125682E-005    0.000845109287183732    0.000845109287183732                       0   8.02853810455417E-006   3.14418175548781E-005   2.77901090157684E-005   2.37098778110845E-011       0.929734528064728       0.984755635261536                       1                       0                       0                       3 
                 0.5201     0.00375093773443361        1.95785585826728        1.72815039024941    -0.00514530209260197        7.39368397316923        2.65239065803966        1.89663903785471   6.72604874125682E-005    0.000845109287183732    0.000845109287183732                       0   8.02853810455417E-006   3.14418175548781E-005   2.77901090157684E-005   2.37098778110845E-011       0.929734528064728       0.984755635261536                       1                       0                       0                       3 
                 0.5201     0.00400100025006252        1.95780974850654        1.72793954570731    -0.00535323597794208        7.39336984967894        2.65233211164058        1.89664184593556   6.72604874125682E-005    0.000845109287183732    0.000845109287183732                       0   8.02853810455417E-006   3.14418175548781E-005   2.77901090157684E-005   2.37098778110845E-011       0.929734528064728       0.984755635261536                       1                       0                       0                       3 
                 0.5201     0.00425106276569142         1.9577636387458        1.72772870116522    -0.00556116986328219        7.39305572618866         2.6522735652415        1.89664465401641   6.72604874125682E-005    0.000845109287183732    0.000845109287183732                       0   8.02853810455417E-006   3.14418175548781E-005   2.77901090157684E-005   2.37098778110845E-011       0.929734528064728       0.984755635261536                       1                       0                       0                       3 
                 0.5201     0.00450112528132033        1.95771752898506        1.72751785662312     -0.0057691037486223        7.39274160269837        2.65221501884243        1.89664746209727   6.72604874125682E-005    0.000845109287183732    0.000845109287183732                       0   8.02853810455417E-006   3.14418175548781E-005   2.77901090157684E-005   2.37098778110845E-011       0.929734528064728       0.984755635261536                       1                       0                       0                       3 
                 0.5201     0.00475118779694924        1.95767141922432        1.72730701208103     -0.0059770376339624        7.39242747920809        2.65215647244335        1.89665027017812   6.72604874125682E-005    0.000845109287183732    0.000845109287183732                       0   8.02853810455417E-006   3.14418175548781E-005   2.77901090157684E-005   2.37098778110845E-011       0.929734528064728       0.984755635261536                       1                       0                       0                       3 
                 0.5201     0.00500125031257814        1.95762575447387        1.72709773975758    -0.00618579123964988        7.39211569670984         2.6520983718595        1.89665296607476   6.72604874125682E-005    0.000845109287183732    0.000845109287183732                       0   8.02853810455417E-006   3.14418175548781E-005   2.77901090157684E-005   2.37098778110845E-011       0.929734528064728       0.984755635261536                       1                       0                       0                       3 
                 0.5201     0.00525131282820705        1.95765816733382        1.72718920533099    -0.00651802010335046        7.39223122011821        2.65211654317092        1.89663457656235   6.72604874125682E-005    0.000845109287183732    0.000845109287183732                       0   8.02853810455417E-006   3.14418175548781E-005   2.77901090157684E-005   2.37098778110845E-011       0.929734528064728       0.984755635261536                       1                       0                       0                       3 
                 0.5201     0.00550137534383596         1.9576837441212        1.72727276809366    -0.00682437451405152        7.39232160335752        2.65212659502722        1.89661699475676   6.72604874125682E-005    0.000845109287183732    0.000845109287183732                       0   8.02853810455417E-006   3.14418175548781E-005   2.77901090157684E-005   2.37098778110845E-011       0.929734528064728       0.984755635261536                       1                       0                       0                       3 
                 0.5201     0.00575143785946487        1.95770932090857        1.72735633085634    -0.00713072892475258        7.39241198659683        2.65213664688352        1.89659941295117   6.72604874125682E-005    0.000845109287183732    0.000845109287183732                       0   8.02853810455417E-006   3.14418175548781E-005   2.77901090157684E-005   2.37098778110845E-011       0.929734528064728       0.984755635261536                       1                       0                       0                       3 
                 0.5201     0.00600150037509377        1.95773489769595        1.72743989361901    -0.00743708333545364        7.39250236983614        2.65214669873982        1.89658183114559   6.72604874125682E-005    0.000845109287183732    0.000845109287183732                       0   8.02853810455417E-006   3.14418175548781E-005   2.77901090157684E-005   2.37098778110845E-011       0.929734528064728       0.984755635261536                       1                       0                       0                       3 
                 0.5201     0.00625156289072268        1.95776047448333        1.72752345638169     -0.0077434377461547        7.39259275307545        2.65215675059611           1.89656424934   6.72604874125682E-005    0.000845109287183732    0.000845109287183732                       0   8.02853810455417E-006   3.14418175548781E-005   2.77901090157684E-005   2.37098778110845E-011       0.929734528064728       0.984755635261536                       1                       0                       0                       3 
                 0.5201     0.00650162540635159         1.9577860512707        1.72760701914436    -0.00804979215685576        7.39268313631476        2.65216680245241        1.89654666753441   6.72604874125682E-005    0.000845109287183732    0.000845109287183732                       0   8.02853810455417E-006   3.14418175548781E-005   2.77901090157684E-005   2.37098778110845E-011       0.929734528064728       0.984755635261536                       1                       0                       0                       3 
                 0.5201     0.00675168792198049        1.95781162805808        1.72769058190704    -0.00835614656755682        7.39277351955407        2.65217685430871        1.89652908572882   6.72604874125682E-005    0.000845109287183732    0.000845109287183732                       0   8.02853810455417E-006   3.14418175548781E-005   2.77901090157684E-005   2.37098778110845E-011       0.929734528064728       0.984755635261536                       1                       0                       0                       3 
                 0.5201      0.0070017504376094        1.95783720484546        1.72777414466971    -0.00866250097825788        7.39286390279337        2.65218690616501        1.89651150392323   6.72604874125682E-005    0.000845109287183732    0.000845109287183732                       0   8.02853810455417E-006   3.14418175548781E-005   2.77901090157684E-005   2.37098778110845E-011       0.929734528064728       0.984755635261536                       1                       0                       0                       3 
                 0.5201     0.00725181295323831        1.95786278163284        1.72785770743239    -0.00896885538895894        7.39295428603268         2.6521969580213        1.89649392211764   6.72604874125682E-005    0.000845109287183732    0.000845109287183732                       0   8.02853810455417E-006   3.14418175548781E-005   2.77901090157684E-005   2.37098778110845E-011       0.929734528064728       0.984755635261536                       1                       0                       0                       3 
                 0.5201     0.00750187546886722        1.95788835842021        1.72794127019506       -0.00927520979966        7.39304466927199         2.6522070098776        1.89647634031205   6.72604874125682E-005    0.000845109287183732    0.000845109287183732                       0   8.02853810455417E-006   3.14418175548781E-005   2.77901090157684E-005   2.37098778110845E-011       0.929734528064728       0.984755635261536                       1                       0                       0                       3 
                 0.5201     0.00775193798449612        1.95791393520759        1.72802483295774    -0.00958156421036106         7.3931350525113         2.6522170617339        1.89645875850647   6.72604874125682E-005    0.000845109287183732    0.000845109287183732                       0   8.02853810455417E-006   3.14418175548781E-005   2.77901090157684E-005   2.37098778110845E-011       0.929734528064728       0.984755635261536                       1                       0                       0                       3 
                 0.5201     0.00800200050012503        1.95793951199497        1.72810839572041    -0.00988791862106213        7.39322543575061         2.6522271135902        1.89644117670088   6.72604874125682E-005    0.000845109287183732    0.000845109287183732                       0   8.02853810455417E-006   3.14418175548781E-005   2.77901090157684E-005   2.37098778110845E-011       0.929734528064728       0.984755635261536                       1                       0                       0                       3 
                 0.5201     0.00825206301575394        1.95796508878234        1.72819195848309     -0.0101942730317632        7.39331581898992         2.6522371654465        1.89642359489529   6.72604874125682E-005    0.000845109287183732    0.000845109287183732                       0   8.02853810455417E-006   3.14418175548781E-005   2.77901090157684E-005   2.37098778110845E-011       0.929734528064728       0.984755635261536                       1                       0                       0                       3 
                 0.5201     0.00850212553138285        1.95799066556972        1.72827552124576     -0.0105006274424642        7.39340620222923        2.65224721730279         1.8964060130897   6.72604874125682E-005    0.000845109287183732    0.000845109287183732                       0   8.02853810455417E-006   3.14418175548781E-005   2.77901090157684E-005   2.37098778110845E-011       0.929734528064728       0.984755635261536                       1                       0                       0                       3 
                 0.5201     0.00875218804701175         1.9580162423571        1.72835908400844     -0.0108069818531653        7.39349658546854        2.65225726915909        1.89638843128411   6.72604874125682E-005    0.000845109287183732    0.000845109287183732                       0   8.02853810455417E-006   3.14418175548781E-005   2.77901090157684E-005   2.37098778110845E-011       0.929734528064728       0.984755635261536                       1                       0                       0                       3 
                 0.5201     0.00900225056264066        1.95804181914447        1.72844264677111     -0.0111133362638664        7.39358696870785        2.65226732101539        1.89637084947852   6.72604874125682E-005    0.000845109287183732    0.000845109287183732                       0   8.02853810455417E-006   3.14418175548781E-005   2.77901090157684E-005   2.37098778110845E-011       0.929734528064728       0.984755635261536                       1                       0                       0                       3 
                 0.5201     0.00925231307826957        1.95806739593185        1.72852620953379     -0.0114196906745674        7.39367735194716        2.65227737287169        1.89635326767294   6.72604874125682E-005    0.000845109287183732    0.000845109287183732                       0   8.02853810455417E-006   3.14418175548781E-005   2.77901090157684E-005   2.37098778110845E-011       0.929734528064728       0.984755635261536                       1                       0                       0                       3 
                 0.5201     0.00950237559389847        1.95809297271923        1.72860977229646     -0.0117260450852685        7.39376773518646        2.65228742472798        1.89633568586735   6.72604874125682E-005    0.000845109287183732    0.000845109287183732                       0   8.02853810455417E-006   3.14418175548781E-005   2.77901090157684E-005   2.37098778110845E-011       0.929734528064728       0.984755635261536                       1                       0                       0                       3 
                 0.5201     0.00975243810952738        1.95811854950661        1.72869333505914     -0.0120323994959695        7.39385811842577        2.65229747658428        1.89631810406176   6.72604874125682E-005    0.000845109287183732    0.000845109287183732                       0   8.02853810455417E-006   3.14418175548781E-005   2.77901090157684E-005   2.37098778110845E-011       0.929734528064728       0.984755635261536                       1                       0                       0                       3 
                 0.5201      0.0100025006251563          1.958144614741        1.72877881201896     -0.0123395765795559        7.39395075166956        2.65230780998926        1.89630025072447   6.72604874125682E-005    0.000845109287183732    0.000845109287183732                       0   8.02853810455417E-006   3.14418175548781E-005   2.77901090157684E-005   2.37098778110845E-011       0.929734528064728       0.984755635261536                       1                       0                       0                       3 
                 0.5201      0.0102525631407852        1.95821474391563        1.72905891638037     -0.0127125150733073        7.39425546629448        2.65233999142959        1.89625537269787   6.72604874125682E-005    0.000845109287183732    0.000845109287183732                       0   8.02853810455417E-006   3.14418175548781E-005   2.77901090157684E-005   2.37098778110845E-011       0.929734528064728       0.984755635261536                       1                       0                       0                       3 
                 0.5201      0.0105026256564141        1.95828213189412        1.72934230599212     -0.0130754323219931        7.39455337326689        2.65236832264023        1.89621040167055   6.72604874125682E-005    0.000845109287183732    0.000845109287183732                       0   8.02853810455417E-006   3.14418175548781E-005   2.77901090157684E-005   2.37098778110845E-011       0.929734528064728       0.984755635261536                       1                       0                       0                       3 
                 0.5201       0.010752688172043        1.95834951987261        1.72962569560386      -0.013438349570679         7.3948512802393        2.65239665385086        1.89616543064324   6.72604874125682E-005    0.000845109287183732    0.000845109287183732                       0   8.02853810455417E-006   3.14418175548781E-005   2.77901090157684E-005   2.37098778110845E-011       0.929734528064728       0.984755635261536                       1                       0                       0                       3 
                 0.5201      0.0110027506876719         1.9584169078511        1.72990908521561     -0.0138012668193648        7.39514918721172        2.65242498506149        1.89612045961592   6.72604874125682E-005    0.000845109287183732    0.000845109287183732                       0   8.02853810455417E-006   3.14418175548781E-005   2.77901090157684E-005   2.37098778110845E-011       0.929734528064728       0.984755635261536                       1                       0                       0                       3 
                 0.5201      0.0112528132033008        1.95848429582959        1.73019247482736     -0.0141641840680506        7.39544709418413        2.65245331627212         1.8960754885886   6.72604874125682E-005    0.000845109287183732    0.000845109287183732                       0   8.02853810455417E-006   3.14418175548781E-005   2.77901090157684E-005   2.37098778110845E-011       0.929734528064728       0.984755635261536                       1                       0                       0                       3 
                 0.5201      0.0115028757189297        1.95855168380808         1.7304758644391     -0.0145271013167364        7.39574500115655        2.65248164748276        1.89603051756129   6.72604874125682E-005    0.000845109287183732    0.000845109287183732                       0   8.02853810455417E-006   3.14418175548781E-005   2.77901090157684E-005   2.37098778110845E-011       0.929734528064728       0.984755635261536                       1                       0                       0                       3 
                 0.5201      0.0117529382345586        1.95861907178657        1.73075925405085     -0.0148900185654222        7.39604290812896        2.65250997869339        1.89598554653397   6.72604874125682E-005    0.000845109287183732    0.000845109287183732                       0   8.02853810455417E-006   3.14418175548781E-005   2.77901090157684E-005   2.37098778110845E-011       0.929734528064728       0.984755635261536                       1                       0                       0                       3 
                 0.5201      0.0120030007501875        1.95868645976506         1.7310426436626     -0.0152529358141081        7.39634081510137        2.65253830990402        1.89594057550666   6.72604874125682E-005    0.000845109287183732    0.000845109287183732                       0   8.02853810455417E-006   3.14418175548781E-005   2.77901090157684E-005   2.37098778110845E-011       0.929734528064728       0.984755635261536                       1                       0                       0                       3 
                 0.5201      0.0122530632658165        1.95875384774355        1.73132603327434     -0.0156158530627939        7.39663872207379        2.65256664111466        1.89589560447934   6.72604874125682E-005    0.000845109287183732    0.000845109287183732                       0   8.02853810455417E-006   3.14418175548781E-005   2.77901090157684E-005   2.37098778110845E-011       0.929734528064728       0.984755635261536                       1                       0                       0                       3 
                 0.5201      0.0125031257814454        1.95882123572204        1.73160942288609     -0.0159787703114797         7.3969366290462        2.65259497232529        1.89585063345202   6.72604874125682E-005    0.000845109287183732    0.000845109287183732                       0   8.02853810455417E-006   3.14418175548781E-005   2.77901090157684E-005   2.37098778110845E-011       0.929734528064728       0.984755635261536                       1                       0                       0                       3 
                 0.5201      0.0127531882970743        1.95888862370053        1.73189281249784     -0.0163416875601655        7.39723453601862        2.65262330353592        1.89580566242471   6.72604874125682E-005    0.000845109287183732    0.000845109287183732                       0   8.02853810455417E-006   3.14418175548781E-005   2.77901090157684E-005   2.37098778110845E-011       0.929734528064728       0.984755635261536                       1                       0                       0                       3 
                 0.5201      0.0130032508127032        1.95895601167902        1.73217620210958     -0.0167046048088514        7.39753244299103        2.65265163474656        1.89576069139739   6.72604874125682E-005    0.000845109287183732    0.000845109287183732                       0   8.02853810455417E-006   3.14418175548781E-005   2.77901090157684E-005   2.37098778110845E-011       0.929734528064728       0.984755635261536                       1                       0                       0                       3 
                 0.5201      0.0132533133283321        1.95902339965751        1.73245959172133     -0.0170675220575372        7.39783034996344        2.65267996595719        1.89571572037008   6.72604874125682E-005    0.000845109287183732    0.000845109287183732                       0   8.02853810455417E-006   3.14418175548781E-005   2.77901090157684E-005   2.37098778110845E-011       0.929734528064728       0.984755635261536                       1                       0                       0                       3 
                 0.5201       0.013503375843961          1.959090787636        1.73274298133308      -0.017430439306223        7.39812825693586        2.65270829716782        1.89567074934276   6.72604874125682E-005    0.000845109287183732    0.000845109287183732                       0   8.02853810455417E-006   3.14418175548781E-005   2.77901090157684E-005   2.37098778110845E-011       0.929734528064728       0.984755635261536                       1                       0                       0                       3 