VARIABLES = "x"
 "y"
 "rho"
 "rhoU"
 "rhoV"
 "rhoE"
 "P"
 "T"
 "ABV"
 "error"
 "error_hMLP"
 "error_BD"
 "ABV_P"
 "ABV_I"
 "ABV_I_BD"
 "ABV_D"
 "Ducros"
 "Sk"
 "trouble_vertex"
 "trouble_face"
 "hMLP_penalty"
 "BD_penalty"
ZONE
DT=(DOUBLE,DOUBLE,DOUBLE,DOUBLE,DOUBLE,DOUBLE,DOUBLE,DOUBLE,DOUBLE,DOUBLE,DOUBLE,DOUBLE,DOUBLE,DOUBLE,DOUBLE,DOUBLE,DOUBLE,DOUBLE,DOUBLE,DOUBLE,DOUBLE,DOUBLE)
                 1.0501                       0        1.85264863510432        1.80076924982896   -0.000295230658494019        6.97886623098271         2.4414781188602        1.84496358618351   1.59754108608468E-005     0.00119864393491298     0.00119864393491298                       0   1.13871174107771E-005   4.58829390481696E-006                       0                       0       0.999396204948425       0.996784925460815                       2                       0                       0                       3 
                 1.0501    0.000250062515628907        1.85263876594389          1.800745845736   5.99557265567227E-005        6.97881897054055        2.44146618587016        1.84496439590496   1.59754108608468E-005     0.00119864393491298     0.00119864393491298                       0   1.13871174107771E-005   4.58829390481696E-006                       0                       0       0.999396204948425       0.996784925460815                       2                       0                       0                       3 
                 1.0501    0.000500125031257815        1.85262775421283        1.80072174751349    0.000430304512974127        6.97876657687914        2.44145223489522        1.84496481920377   1.59754108608468E-005     0.00119864393491298     0.00119864393491298                       0   1.13871174107771E-005   4.58829390481696E-006                       0                       0       0.999396204948425       0.996784925460815                       2                       0                       0                       3 
                 1.0501    0.000750187546886722        1.85261674248176        1.80069764929098    0.000800653299391531        6.97871418321772        2.44143828392029        1.84496524250258   1.59754108608468E-005     0.00119864393491298     0.00119864393491298                       0   1.13871174107771E-005   4.58829390481696E-006                       0                       0       0.999396204948425       0.996784925460815                       2                       0                       0                       3 
                 1.0501     0.00100025006251563        1.85260573075069        1.80067355106846     0.00117100208580894        6.97866178955631        2.44142433294536        1.84496566580139   1.59754108608468E-005     0.00119864393491298     0.00119864393491298                       0   1.13871174107771E-005   4.58829390481696E-006                       0                       0       0.999396204948425       0.996784925460815                       2                       0                       0                       3 
                 1.0501     0.00125031257814454        1.85259471901962        1.80064945284595     0.00154135087222634        6.97860939589489        2.44141038197043         1.8449660891002   1.59754108608468E-005     0.00119864393491298     0.00119864393491298                       0   1.13871174107771E-005   4.58829390481696E-006                       0                       0       0.999396204948425       0.996784925460815                       2                       0                       0                       3 
                 1.0501     0.00150037509377344        1.85258370728855        1.80062535462344     0.00191169965864374        6.97855700223348        2.44139643099549        1.84496651239902   1.59754108608468E-005     0.00119864393491298     0.00119864393491298                       0   1.13871174107771E-005   4.58829390481696E-006                       0                       0       0.999396204948425       0.996784925460815                       2                       0                       0                       3 
                 1.0501     0.00175043760940235        1.85257269555748        1.80060125640093     0.00228204844506115        6.97850460857206        2.44138248002056        1.84496693569783   1.59754108608468E-005     0.00119864393491298     0.00119864393491298                       0   1.13871174107771E-005   4.58829390481696E-006                       0                       0       0.999396204948425       0.996784925460815                       2                       0                       0                       3 
                 1.0501     0.00200050012503126        1.85256168382641        1.80057715817841     0.00265239723147855        6.97845221491065        2.44136852904563        1.84496735899664   1.59754108608468E-005     0.00119864393491298     0.00119864393491298                       0   1.13871174107771E-005   4.58829390481696E-006                       0                       0       0.999396204948425       0.996784925460815                       2                       0                       0                       3 
                 1.0501     0.00225056264066016        1.85255067209534         1.8005530599559     0.00302274601789595        6.97839982124924        2.44135457807069        1.84496778229545   1.59754108608468E-005     0.00119864393491298     0.00119864393491298                       0   1.13871174107771E-005   4.58829390481696E-006                       0                       0       0.999396204948425       0.996784925460815                       2                       0                       0                       3 
                 1.0501     0.00250062515628907        1.85253966036427        1.80052896173339     0.00339309480431336        6.97834742758782        2.44134062709576        1.84496820559427   1.59754108608468E-005     0.00119864393491298     0.00119864393491298                       0   1.13871174107771E-005   4.58829390481696E-006                       0                       0       0.999396204948425       0.996784925460815                       2                       0                       0                       3 
                 1.0501     0.00275068767191798        1.85252864863321        1.80050486351088     0.00376344359073076        6.97829503392641        2.44132667612083        1.84496862889308   1.59754108608468E-005     0.00119864393491298     0.00119864393491298                       0   1.13871174107771E-005   4.58829390481696E-006                       0                       0       0.999396204948425       0.996784925460815                       2                       0                       0                       3 
                 1.0501     0.00300075018754689        1.85251763690214        1.80048076528836     0.00413379237714817        6.97824264026499        2.44131272514589        1.84496905219189   1.59754108608468E-005     0.00119864393491298     0.00119864393491298                       0   1.13871174107771E-005   4.58829390481696E-006                       0                       0       0.999396204948425       0.996784925460815                       2                       0                       0                       3 
                 1.0501     0.00325081270317579        1.85250662517107        1.80045666706585     0.00450414116356557        6.97819024660358        2.44129877417096         1.8449694754907   1.59754108608468E-005     0.00119864393491298     0.00119864393491298                       0   1.13871174107771E-005   4.58829390481696E-006                       0                       0       0.999396204948425       0.996784925460815                       2                       0                       0                       3 
                 1.0501      0.0035008752188047           1.85249561344        1.80043256884334     0.00487448994998297        6.97813785294216        2.44128482319603        1.84496989878951   1.59754108608468E-005     0.00119864393491298     0.00119864393491298                       0   1.13871174107771E-005   4.58829390481696E-006                       0                       0       0.999396204948425       0.996784925460815                       2                       0                       0                       3 
                 1.0501     0.00375093773443361        1.85248460170893        1.80040847062083     0.00524483873640038        6.97808545928075         2.4412708722211        1.84497032208833   1.59754108608468E-005     0.00119864393491298     0.00119864393491298                       0   1.13871174107771E-005   4.58829390481696E-006                       0                       0       0.999396204948425       0.996784925460815                       2                       0                       0                       3 
                 1.0501     0.00400100025006252        1.85247358997786        1.80038437239831     0.00561518752281778        6.97803306561933        2.44125692124616        1.84497074538714   1.59754108608468E-005     0.00119864393491298     0.00119864393491298                       0   1.13871174107771E-005   4.58829390481696E-006                       0                       0       0.999396204948425       0.996784925460815                       2                       0                       0                       3 
                 1.0501     0.00425106276569142        1.85246257824679         1.8003602741758     0.00598553630923519        6.97798067195792        2.44124297027123        1.84497116868595   1.59754108608468E-005     0.00119864393491298     0.00119864393491298                       0   1.13871174107771E-005   4.58829390481696E-006                       0                       0       0.999396204948425       0.996784925460815                       2                       0                       0                       3 
                 1.0501     0.00450112528132033        1.85245156651572        1.80033617595329     0.00635588509565259         6.9779282782965         2.4412290192963        1.84497159198476   1.59754108608468E-005     0.00119864393491298     0.00119864393491298                       0   1.13871174107771E-005   4.58829390481696E-006                       0                       0       0.999396204948425       0.996784925460815                       2                       0                       0                       3 
                 1.0501     0.00475118779694924        1.85244055478465        1.80031207773078     0.00672623388206999        6.97787588463509        2.44121506832136        1.84497201528357   1.59754108608468E-005     0.00119864393491298     0.00119864393491298                       0   1.13871174107771E-005   4.58829390481696E-006                       0                       0       0.999396204948425       0.996784925460815                       2                       0                       0                       3 
                 1.0501     0.00500125031257814        1.85242926475446        1.80028762846678     0.00709654989211874        6.97782189731988        2.44120056116555        1.84497229542305   1.59754108608468E-005     0.00119864393491298     0.00119864393491298                       0   1.13871174107771E-005   4.58829390481696E-006                       0                       0       0.999396204948425       0.996784925460815                       2                       0                       0                       3 
                 1.0501     0.00525131282820705        1.85236343847366        1.80019628550591     0.00747984420899988        6.97745727855758        2.44107689866217        1.84494438514177   1.59754108608468E-005     0.00119864393491298     0.00119864393491298                       0   1.13871174107771E-005   4.58829390481696E-006                       0                       0       0.999396204948425       0.996784925460815                       2                       0                       0                       3 
                 1.0501     0.00550137534383596        1.85229816102728        1.80010687406528     0.00787587490155294        6.97709689029572        2.44095422547405        1.84491666801251   1.59754108608468E-005     0.00119864393491298     0.00119864393491298                       0   1.13871174107771E-005   4.58829390481696E-006                       0                       0       0.999396204948425       0.996784925460815                       2                       0                       0                       3 
                 1.0501     0.00575143785946487        1.85223288358089        1.80001746262466       0.008271905594106        6.97673650203387        2.44083155228592        1.84488895088325   1.59754108608468E-005     0.00119864393491298     0.00119864393491298                       0   1.13871174107771E-005   4.58829390481696E-006                       0                       0       0.999396204948425       0.996784925460815                       2                       0                       0                       3 
                 1.0501     0.00600150037509377        1.85216760613451        1.79992805118403     0.00866793628665906        6.97637611377201        2.44070887909779        1.84486123375399   1.59754108608468E-005     0.00119864393491298     0.00119864393491298                       0   1.13871174107771E-005   4.58829390481696E-006                       0                       0       0.999396204948425       0.996784925460815                       2                       0                       0                       3 
                 1.0501     0.00625156289072268        1.85210232868812         1.7998386397434     0.00906396697921212        6.97601572551015        2.44058620590966        1.84483351662474   1.59754108608468E-005     0.00119864393491298     0.00119864393491298                       0   1.13871174107771E-005   4.58829390481696E-006                       0                       0       0.999396204948425       0.996784925460815                       2                       0                       0                       3 
                 1.0501     0.00650162540635159        1.85203705124174        1.79974922830277     0.00945999767176518         6.9756553372483        2.44046353272153        1.84480579949548   1.59754108608468E-005     0.00119864393491298     0.00119864393491298                       0   1.13871174107771E-005   4.58829390481696E-006                       0                       0       0.999396204948425       0.996784925460815                       2                       0                       0                       3 
                 1.0501     0.00675168792198049        1.85197177379535        1.79965981686214     0.00985602836431824        6.97529494898644        2.44034085953341        1.84477808236622   1.59754108608468E-005     0.00119864393491298     0.00119864393491298                       0   1.13871174107771E-005   4.58829390481696E-006                       0                       0       0.999396204948425       0.996784925460815                       2                       0                       0                       3 
                 1.0501      0.0070017504376094        1.85190649634897        1.79957040542152      0.0102520590568713        6.97493456072458        2.44021818634528        1.84475036523696   1.59754108608468E-005     0.00119864393491298     0.00119864393491298                       0   1.13871174107771E-005   4.58829390481696E-006                       0                       0       0.999396204948425       0.996784925460815                       2                       0                       0                       3 
                 1.0501     0.00725181295323831        1.85184121890258        1.79948099398089      0.0106480897494244        6.97457417246273        2.44009551315715         1.8447226481077   1.59754108608468E-005     0.00119864393491298     0.00119864393491298                       0   1.13871174107771E-005   4.58829390481696E-006                       0                       0       0.999396204948425       0.996784925460815                       2                       0                       0                       3 
                 1.0501     0.00750187546886722         1.8517759414562        1.79939158254026      0.0110441204419774        6.97421378420087        2.43997283996902        1.84469493097845   1.59754108608468E-005     0.00119864393491298     0.00119864393491298                       0   1.13871174107771E-005   4.58829390481696E-006                       0                       0       0.999396204948425       0.996784925460815                       2                       0                       0                       3 
                 1.0501     0.00775193798449612        1.85171066400981        1.79930217109963      0.0114401511345305        6.97385339593901        2.43985016678089        1.84466721384919   1.59754108608468E-005     0.00119864393491298     0.00119864393491298                       0   1.13871174107771E-005   4.58829390481696E-006                       0                       0       0.999396204948425       0.996784925460815                       2                       0                       0                       3 
                 1.0501     0.00800200050012503        1.85164538656343          1.799212759659      0.0118361818270835        6.97349300767716        2.43972749359276        1.84463949671993   1.59754108608468E-005     0.00119864393491298     0.00119864393491298                       0   1.13871174107771E-005   4.58829390481696E-006                       0                       0       0.999396204948425       0.996784925460815                       2                       0                       0                       3 
                 1.0501     0.00825206301575394        1.85158010911704        1.79912334821838      0.0122322125196366         6.9731326194153        2.43960482040464        1.84461177959067   1.59754108608468E-005     0.00119864393491298     0.00119864393491298                       0   1.13871174107771E-005   4.58829390481696E-006                       0                       0       0.999396204948425       0.996784925460815                       2                       0                       0                       3 
                 1.0501     0.00850212553138285        1.85151483167066        1.79903393677775      0.0126282432121897        6.97277223115344        2.43948214721651        1.84458406246142   1.59754108608468E-005     0.00119864393491298     0.00119864393491298                       0   1.13871174107771E-005   4.58829390481696E-006                       0                       0       0.999396204948425       0.996784925460815                       2                       0                       0                       3 
                 1.0501     0.00875218804701175        1.85144955422427        1.79894452533712      0.0130242739047427        6.97241184289158        2.43935947402838        1.84455634533216   1.59754108608468E-005     0.00119864393491298     0.00119864393491298                       0   1.13871174107771E-005   4.58829390481696E-006                       0                       0       0.999396204948425       0.996784925460815                       2                       0                       0                       3 
                 1.0501     0.00900225056264066        1.85138427677789        1.79885511389649      0.0134203045972958        6.97205145462973        2.43923680084025         1.8445286282029   1.59754108608468E-005     0.00119864393491298     0.00119864393491298                       0   1.13871174107771E-005   4.58829390481696E-006                       0                       0       0.999396204948425       0.996784925460815                       2                       0                       0                       3 
                 1.0501     0.00925231307826957         1.8513189993315        1.79876570245587      0.0138163352898488        6.97169106636787        2.43911412765212        1.84450091107364   1.59754108608468E-005     0.00119864393491298     0.00119864393491298                       0   1.13871174107771E-005   4.58829390481696E-006                       0                       0       0.999396204948425       0.996784925460815                       2                       0                       0                       3 
                 1.0501     0.00950237559389847        1.85125372188512        1.79867629101524      0.0142123659824019        6.97133067810601          2.438991454464        1.84447319394438   1.59754108608468E-005     0.00119864393491298     0.00119864393491298                       0   1.13871174107771E-005   4.58829390481696E-006                       0                       0       0.999396204948425       0.996784925460815                       2                       0                       0                       3 
                 1.0501     0.00975243810952738        1.85118844443873        1.79858687957461       0.014608396674955        6.97097028984416        2.43886878127587        1.84444547681513   1.59754108608468E-005     0.00119864393491298     0.00119864393491298                       0   1.13871174107771E-005   4.58829390481696E-006                       0                       0       0.999396204948425       0.996784925460815                       2                       0                       0                       3 
                 1.0501      0.0100025006251563        1.85112241595736        1.79849642010747       0.015004156052876        6.97060557806299        2.43874463928844        1.84441739639148   1.59754108608468E-005     0.00119864393491298     0.00119864393491298                       0   1.13871174107771E-005   4.58829390481696E-006                       0                       0       0.999396204948425       0.996784925460815                       2                       0                       0                       3 
                 1.0501      0.0102525631407852        1.85098547798556        1.79830924426306      0.0153892665696876         6.9698337340719        2.43848123729691        1.84435455303396   1.59754108608468E-005     0.00119864393491298     0.00119864393491298                       0   1.13871174107771E-005   4.58829390481696E-006                       0                       0       0.999396204948425       0.996784925460815                       2                       0                       0                       3 
                 1.0501      0.0105026256564141        1.85085073780031        1.79812656399685      0.0157847440580163        6.96907523029632        2.43822176108707        1.84429247715746   1.59754108608468E-005     0.00119864393491298     0.00119864393491298                       0   1.13871174107771E-005   4.58829390481696E-006                       0                       0       0.999396204948425       0.996784925460815                       2                       0                       0                       3 
                 1.0501       0.010752688172043        1.85071599761506        1.79794388373065       0.016180221546345        6.96831672652073        2.43796228487723        1.84423040128097   1.59754108608468E-005     0.00119864393491298     0.00119864393491298                       0   1.13871174107771E-005   4.58829390481696E-006                       0                       0       0.999396204948425       0.996784925460815                       2                       0                       0                       3 
                 1.0501      0.0110027506876719        1.85058125742981        1.79776120346444      0.0165756990346737        6.96755822274515        2.43770280866738        1.84416832540447   1.59754108608468E-005     0.00119864393491298     0.00119864393491298                       0   1.13871174107771E-005   4.58829390481696E-006                       0                       0       0.999396204948425       0.996784925460815                       2                       0                       0                       3 
                 1.0501      0.0112528132033008        1.85044651724456        1.79757852319824      0.0169711765230024        6.96679971896956        2.43744333245754        1.84410624952798   1.59754108608468E-005     0.00119864393491298     0.00119864393491298                       0   1.13871174107771E-005   4.58829390481696E-006                       0                       0       0.999396204948425       0.996784925460815                       2                       0                       0                       3 
                 1.0501      0.0115028757189297        1.85031177705931        1.79739584293203      0.0173666540113311        6.96604121519398         2.4371838562477        1.84404417365148   1.59754108608468E-005     0.00119864393491298     0.00119864393491298                       0   1.13871174107771E-005   4.58829390481696E-006                       0                       0       0.999396204948425       0.996784925460815                       2                       0                       0                       3 
                 1.0501      0.0117529382345586        1.85017703687406        1.79721316266583      0.0177621314996598         6.9652827114184        2.43692438003786        1.84398209777498   1.59754108608468E-005     0.00119864393491298     0.00119864393491298                       0   1.13871174107771E-005   4.58829390481696E-006                       0                       0       0.999396204948425       0.996784925460815                       2                       0                       0                       3 
                 1.0501      0.0120030007501875        1.85004229668881        1.79703048239962      0.0181576089879885        6.96452420764281        2.43666490382802        1.84392002189849   1.59754108608468E-005     0.00119864393491298     0.00119864393491298                       0   1.13871174107771E-005   4.58829390481696E-006                       0                       0       0.999396204948425       0.996784925460815                       2                       0                       0                       3 
                 1.0501      0.0122530632658165        1.84990755650356        1.79684780213342      0.0185530864763172        6.96376570386723        2.43640542761817        1.84385794602199   1.59754108608468E-005     0.00119864393491298     0.00119864393491298                       0   1.13871174107771E-005   4.58829390481696E-006                       0                       0       0.999396204948425       0.996784925460815                       2                       0                       0                       3 
                 1.0501      0.0125031257814454        1.84977281631831        1.79666512186721      0.0189485639646459        6.96300720009164        2.43614595140833        1.84379587014549   1.59754108608468E-005     0.00119864393491298     0.00119864393491298                       0   1.13871174107771E-005   4.58829390481696E-006                       0                       0       0.999396204948425       0.996784925460815                       2                       0                       0                       3 
                 1.0501      0.0127531882970743        1.84963807613306        1.79648244160101      0.0193440414529746        6.96224869631606        2.43588647519849          1.843733794269   1.59754108608468E-005     0.00119864393491298     0.00119864393491298                       0   1.13871174107771E-005   4.58829390481696E-006                       0                       0       0.999396204948425       0.996784925460815                       2                       0                       0                       3 
                 1.0501      0.0130032508127032        1.84950333594781         1.7962997613348      0.0197395189413033        6.96149019254048        2.43562699898865         1.8436717183925   1.59754108608468E-005     0.00119864393491298     0.00119864393491298                       0   1.13871174107771E-005   4.58829390481696E-006                       0                       0       0.999396204948425       0.996784925460815                       2                       0                       0                       3 
                 1.0501      0.0132533133283321        1.84936859576256         1.7961170810686      0.0201349964296321        6.96073168876489         2.4353675227788          1.843609642516   1.59754108608468E-005     0.00119864393491298     0.00119864393491298                       0   1.13871174107771E-005   4.58829390481696E-006                       0                       0       0.999396204948425       0.996784925460815                       2                       0                       0                       3 
                 1.0501       0.013503375843961        1.84923385557731        1.79593440080239      0.0205304739179608        6.95997318498931        2.43510804656896        1.84354756663951   1.59754108608468E-005     0.00119864393491298     0.00119864393491298                       0   1.13871174107771E-005   4.58829390481696E-006                       0                       0       0.999396204948425       0.996784925460815                       2                       0                       0                       3 