VARIABLES = "x"
 "y"
 "rho"
 "rhoU"
 "rhoV"
 "rhoE"
 "P"
 "T"
 "ABV"
 "error"
 "error_hMLP"
 "error_BD"
 "ABV_P"
 "ABV_I"
 "ABV_I_BD"
 "ABV_D"
 "Ducros"
 "Sk"
 "trouble_vertex"
 "trouble_face"
 "hMLP_penalty"
 "BD_penalty"
ZONE
DT=(DOUBLE,DOUBLE,DOUBLE,DOUBLE,DOUBLE,DOUBLE,DOUBLE,DOUBLE,DOUBLE,DOUBLE,DOUBLE,DOUBLE,DOUBLE,DOUBLE,DOUBLE,DOUBLE,DOUBLE,DOUBLE,DOUBLE,DOUBLE,DOUBLE,DOUBLE)
                 1.0501                       0        1.87485036067056        1.83561613949023   3.87104436260175E-006        7.10654913719664        2.48317915697587         1.8542550292964                       0                       0                       0                       0                       0                       0                       0                       0       0.922182738780975       0.997956216335297                       0                       0                       0                       3 
                 1.0501    0.000250062515628907        1.87487211881252        1.83593817446965    0.000957489910697311        7.10684586361238        2.48317554400529        1.85423084760249                       0                       0                       0                       0                       0                       0                       0                       0       0.922182738780975       0.997956216335297                       0                       0                       0                       3 
                 1.0501    0.000500125031257815        1.87489398428259        1.83626038832925     0.00191270507470396        7.10714330554884        2.48317214569092        1.85420670168462                       0                       0                       0                       0                       0                       0                       0                       0       0.922182738780975       0.997956216335297                       0                       0                       0                       3 
                 1.0501    0.000750187546886722        1.87493191948839        1.83657771854241     0.00286685724468368        7.10742294532453        2.48316647730236        1.85416496269176                       0                       0                       0                       0                       0                       0                       0                       0       0.922182738780975       0.997956216335297                       0                       0                       0                       3 
                 1.0501     0.00100025006251563        1.87500214850362        1.83688577008208     0.00382261642106904        7.10766859079138        2.48315678349539        1.85408826818523                       0                       0                       0                       0                       0                       0                       0                       0       0.922182738780975       0.997956216335297                       0                       0                       0                       3 
                 1.0501     0.00125031257814454        1.87507239523876        1.83719385410826     0.00477863914081571        7.10791434257772        2.48314712512824        1.85401158253865                       0                       0                       0                       0                       0                       0                       0                       0       0.922182738780975       0.997956216335297                       0                       0                       0                       3 
                 1.0501     0.00150037509377344        1.87517483543177        1.83749229062105     0.00573360503884687        7.10812508875262        2.48313303461508        1.85389977657072                       0                       0                       0                       0                       0                       0                       0                       0       0.922182738780975       0.997956216335297                       0                       0                       0                       3 
                 1.0501     0.00175043760940235        1.87529346341127        1.83778620004783     0.00669043525010449         7.1083195080722        2.48311711619793        1.85377059593266                       0                       0                       0                       0                       0                       0                       0                       0       0.922182738780975       0.997956216335297                       0                       0                       0                       3 
                 1.0501     0.00200050012503126        1.87540282256994        1.83795334961891     0.00762761816882996        7.10835955123861        2.48308709884612         1.8536402105204   9.22615983611763E-010                       0                       0                       0                       0   9.22615983611763E-010                       0                       0       0.970519244670868       0.998062252998352                       0                       0                       0                       4 
                 1.0501     0.00225056264066016        1.87549018290964        1.83817548996568      0.0085831731564426        7.10852713676852        2.48308208391226         1.8535501039597   9.22615983611763E-010                       0                       0                       0                       0   9.22615983611763E-010                       0                       0       0.970519244670868       0.998062252998352                       0                       0                       0                       4 
                 1.0501     0.00250062515628907         1.8755787179573        1.83839901860368     0.00954048054191061        7.10870098740756        2.48307931160269        1.85346049575995   9.22615983611763E-010                       0                       0                       0                       0   9.22615983611763E-010                       0                       0       0.970519244670868       0.998062252998352                       0                       0                       0                       4 
                 1.0501     0.00275068767191798        1.87565167297263         1.8386160267434      0.0104938993239257        7.10887063127003        2.48307422557755        1.85338457455238   9.22615983611763E-010                       0                       0                       0                       0   9.22615983611763E-010                       0                       0       0.970519244670868       0.998062252998352                       0                       0                       0                       4 
                 1.0501     0.00300075018754689        1.87569664289355         1.8388233716521      0.0114437538274863        7.10904719542389        2.48306984040863        1.85333683140524   9.22615983611763E-010                       0                       0                       0                       0   9.22615983611763E-010                       0                       0       0.970519244670868       0.998062252998352                       0                       0                       0                       4 
                 1.0501     0.00325081270317579        1.87574180469502        1.83903093708023      0.0123938902898361        7.10922480203322        2.48306581608969         1.8532891655831   9.22615983611763E-010                       0                       0                       0                       0   9.22615983611763E-010                       0                       0       0.970519244670868       0.998062252998352                       0                       0                       0                       4 
                 1.0501      0.0035008752188047        1.87575672584708        1.83922647186742      0.0133374613514843        7.10939831737734        2.48305873481001        1.85326913021375   9.22615983611763E-010                       0                       0                       0                       0   9.22615983611763E-010                       0                       0       0.970519244670868       0.998062252998352                       0                       0                       0                       4 
                 1.0501     0.00375093773443361        1.87575851443328        1.83941816359305      0.0142804270503848        7.10957932230044        2.48305345848073        1.85326345145258   9.22615983611763E-010                       0                       0                       0                       0   9.22615983611763E-010                       0                       0       0.970519244670868       0.998062252998352                       0                       0                       0                       4 
                 1.0501     0.00400100025006252        1.87570637226275         1.8395423459405      0.0151311273069945        7.10945409021275        2.48294218276763        1.85323192127151                       0                       0                       0                       0                       0                       0                       0                       0       0.991556942462921       0.998147308826447                       0                       0                       0                       4 
                 1.0501     0.00425106276569142        1.87567206444997        1.83942108173544       0.016089078476963        7.10944805429575        2.48297735039085        1.85329208637637                       0                       0                       0                       0                       0                       0                       0                       0       0.991556942462921       0.998147308826447                       0                       0                       0                       4 
                 1.0501     0.00450112528132033        1.87564376005363        1.83930808772354      0.0170546991110558        7.10947524082493        2.48302367480571         1.8533546422223                       0                       0                       0                       0                       0                       0                       0                       0       0.991556942462921       0.998147308826447                       0                       0                       0                       4 
                 1.0501     0.00475118779694924        1.87560353104691        1.83916763235779      0.0179940639172055        7.10940279860779        2.48303856295674        1.85340553036729                       0                       0                       0                       0                       0                       0                       0                       0       0.991556942462921       0.998147308826447                       0                       0                       0                       4 
                 1.0501     0.00500125031257814        1.87555416454226        1.83899301991989       0.018900166821194        7.10921373820498        2.48301830319574        1.85343918644543                       0                       0                       0                       0                       0                       0                       0                       0       0.991556942462921       0.998147308826447                       0                       0                       0                       4 
                 1.0501     0.00525131282820705        1.87550573857099        1.83881970591742      0.0198074711854646        7.10902987154396         2.4829997913286        1.85347321429782                       0                       0                       0                       0                       0                       0                       0                       0       0.991556942462921       0.998147308826447                       0                       0                       0                       4 
                 1.0501     0.00550137534383596        1.87543769679716        1.83859745517389        0.02066784148613         7.1086708595683        2.48292653590822        1.85348577667203                       0                       0                       0                       0                       0                       0                       0                       0       0.991556942462921       0.998147308826447                       0                       0                       0                       4 
                 1.0501     0.00575143785946487        1.87536910451652        1.83836377638729      0.0215168316523895         7.1082762974533        2.48284327722076        1.85349145543321                       0                       0                       0                       0                       0                       0                       0                       0       0.991556942462921       0.998147308826447                       0                       0                       0                       4 
                 1.0501     0.00600150037509377        1.87523863022513        1.83807133570004      0.0222761847239523        7.10754962154866         2.4826389011668        1.85346774512416   2.02840999205534E-012                       0                       0                       0                       0   2.02840999205534E-012                       0                       0       0.993149697780609       0.996122300624847                       0                       0                       0                       4 
                 1.0501     0.00625156289072268         1.8751530774322        1.83785162519715      0.0230754583516371         7.1070394503754        2.48250051106274        1.85344900126099   2.02840999205534E-012                       0                       0                       0                       0   2.02840999205534E-012                       0                       0       0.993149697780609       0.996122300624847                       0                       0                       0                       4 
                 1.0501     0.00650162540635159        1.87508260713605        1.83765260026811      0.0238941794911832        7.10661251485025        2.48239006586509        1.85343621286968   2.02840999205534E-012                       0                       0                       0                       0   2.02840999205534E-012                       0                       0       0.993149697780609       0.996122300624847                       0                       0                       0                       4 
                 1.0501     0.00675168792198049         1.8749596865959        1.83739180564734      0.0246373931644292        7.10589769588934        2.48217894661079        1.85340008792495   2.02840999205534E-012                       0                       0                       0                       0   2.02840999205534E-012                       0                       0       0.993149697780609       0.996122300624847                       0                       0                       0                       4 
                 1.0501      0.0070017504376094         1.8747708859193        1.83706048962793      0.0252804226495076        7.10482259075413        2.48183905968184        1.85333291052697   2.02840999205534E-012                       0                       0                       0                       0   2.02840999205534E-012                       0                       0       0.993149697780609       0.996122300624847                       0                       0                       0                       4 
                 1.0501     0.00725181295323831        1.87458438096337        1.83673232854628      0.0259264157203259        7.10376016981119         2.4815034312476        1.85326664336209   2.02840999205534E-012                       0                       0                       0                       0   2.02840999205534E-012                       0                       0       0.993149697780609       0.996122300624847                       0                       0                       0                       4 
                 1.0501     0.00750187546886722         1.8743043623694        1.83629608720105      0.0264362461492304        7.10218500155675        2.48098771959547        1.85315829768056   2.02840999205534E-012                       0                       0                       0                       0   2.02840999205534E-012                       0                       0       0.993149697780609       0.996122300624847                       0                       0                       0                       4 
                 1.0501     0.00775193798449612        1.87400177851092        1.83583870131538      0.0269095113156404        7.10048709786619        2.48042699821446        1.85303859663295   2.02840999205534E-012                       0                       0                       0                       0   2.02840999205534E-012                       0                       0       0.993149697780609       0.996122300624847                       0                       0                       0                       4 
                 1.0501     0.00800200050012503         1.8737945749609         1.8354899453015      0.0275304338323836         7.0992881830464        2.48004069306563        1.85295497724024   1.74990490847682E-012                       0                       0                       0                       0   1.74990490847682E-012                       0                       0         0.9802485704422        0.99616140127182                       0                       0                       0                       4 
                 1.0501     0.00825206301575394        1.87329892819995        1.83477235089812      0.0277385283004783        7.09653289602821        2.47912338870068        1.85275958937392   1.74990490847682E-012                       0                       0                       0                       0   1.74990490847682E-012                       0                       0         0.9802485704422        0.99616140127182                       0                       0                       0                       4 
                 1.0501     0.00850212553138285        1.87281641168467         1.8340726550005      0.0279627663201495        7.09384983412633         2.4782303463651        1.85256937296617   1.74990490847682E-012                       0                       0                       0                       0   1.74990490847682E-012                       0                       0         0.9802485704422        0.99616140127182                       0                       0                       0                       4 
                 1.0501     0.00875218804701175        1.87228001995402        1.83330006013244      0.0281137876087587        7.09087132257964        2.47723778092457        1.85235791537926   1.74990490847682E-012                       0                       0                       0                       0   1.74990490847682E-012                       0                       0         0.9802485704422        0.99616140127182                       0                       0                       0                       4 
                 1.0501     0.00900225056264066        1.87167152161048         1.8324302140821      0.0281627291781969        7.08749790810079        2.47611211397391        1.85211805784348   1.74990490847682E-012                       0                       0                       0                       0   1.74990490847682E-012                       0                       0         0.9802485704422        0.99616140127182                       0                       0                       0                       4 
                 1.0501     0.00925231307826957        1.87106496731652        1.83156301806462       0.028214060903376        7.08413518719235        2.47499004442341        1.85187896858364   1.74990490847682E-012                       0                       0                       0                       0   1.74990490847682E-012                       0                       0         0.9802485704422        0.99616140127182                       0                       0                       0                       4 
                 1.0501     0.00950237559389847        1.87036113451092        1.83056435209453      0.0281320351339132         7.0802393862758        2.47368827340212        1.85160131115077   1.74990490847682E-012                       0                       0                       0                       0   1.74990490847682E-012                       0                       0         0.9802485704422        0.99616140127182                       0                       0                       0                       4 
                 1.0501     0.00975243810952738        1.86963049704956        1.82952974440905      0.0280104601791906        7.07619700261261         2.4723369965305        1.85131308048517   1.74990490847682E-012                       0                       0                       0                       0   1.74990490847682E-012                       0                       0         0.9802485704422        0.99616140127182                       0                       0                       0                       4 
                 1.0501      0.0100025006251563        1.86905588025315        1.82866183716426      0.0280925969005612        7.07295798710772        2.47127067328729        1.85108366044544   9.77542021938713E-014                       0                       0                       0                       0   9.77542021938713E-014                       0                       0       0.999864101409912       0.997533798217773                       0                       0                       0                       4 
                 1.0501      0.0102525631407852        1.86814744166175        1.82741313640857      0.0277260179759572        7.06796138142708        2.46958886106418        1.85072310730043   9.77542021938713E-014                       0                       0                       0                       0   9.77542021938713E-014                       0                       0       0.999864101409912       0.997533798217773                       0                       0                       0                       4 
                 1.0501      0.0105026256564141        1.86723173024369        1.82615500016315      0.0273493214616017        7.06292508041438        2.46789354963762        1.85035971129991   9.77542021938713E-014                       0                       0                       0                       0   9.77542021938713E-014                       0                       0       0.999864101409912       0.997533798217773                       0                       0                       0                       4 
                 1.0501       0.010752688172043        1.86633867630794        1.82492593563638       0.027000538700119        7.05801380317373        2.46624096902293        1.85000557518015   9.77542021938713E-014                       0                       0                       0                       0   9.77542021938713E-014                       0                       0       0.999864101409912       0.997533798217773                       0                       0                       0                       4 
                 1.0501      0.0110027506876719        1.86547122863257         1.8237294752909       0.026680500503071        7.05324487633291        2.46463728994665        1.84966217520809   9.77542021938713E-014                       0                       0                       0                       0   9.77542021938713E-014                       0                       0       0.999864101409912       0.997533798217773                       0                       0                       0                       4 
                 1.0501      0.0112528132033008         1.8646027358901        1.82253165911496      0.0263590084222103        7.04847024548079        2.46303167611786        1.84931836422643   9.77542021938713E-014                       0                       0                       0                       0   9.77542021938713E-014                       0                       0       0.999864101409912       0.997533798217773                       0                       0                       0                       4 
                 1.0501      0.0115028757189297        1.86377370428554        1.82138442979349      0.0260853229025901        7.04391386139746         2.4615006977309        1.84899086193197   9.77542021938713E-014                       0                       0                       0                       0   9.77542021938713E-014                       0                       0       0.999864101409912       0.997533798217773                       0                       0                       0                       4 
                 1.0501      0.0117529382345586        1.86295238550401        1.82024697840169      0.0258190366525574        7.03940107956454        2.45998469207057        1.84866672539847   9.77542021938713E-014                       0                       0                       0                       0   9.77542021938713E-014                       0                       0       0.999864101409912       0.997533798217773                       0                       0                       0                       4 
                 1.0501      0.0120030007501875        1.86207299275368        1.81904131160529      0.0254508073603964        7.03457052066918        2.45835780042681        1.84831679494708   4.22088477722033E-014                       0                       0                       0                       0   4.22088477722033E-014                       0                       0       0.994534313678741       0.996352851390839                       0                       0                       0                       4 
                 1.0501      0.0122530632658165        1.86137416307918        1.81808555808757         0.0253321118737        7.03073745574634        2.45706525927755        1.84803839602888   4.22088477722033E-014                       0                       0                       0                       0   4.22088477722033E-014                       0                       0       0.994534313678741       0.996352851390839                       0                       0                       0                       4 
                 1.0501      0.0125031257814454        1.86066306592202        1.81711368506293       0.025197064533184        7.02683762240303         2.4557500224178        1.84775517340463   4.22088477722033E-014                       0                       0                       0                       0   4.22088477722033E-014                       0                       0       0.994534313678741       0.996352851390839                       0                       0                       0                       4 
                 1.0501      0.0127531882970743        1.86000113634146        1.81620850852121      0.0251234017246343        7.02320909259126        2.45452628242652        1.84749178490033   4.22088477722033E-014                       0                       0                       0                       0   4.22088477722033E-014                       0                       0       0.994534313678741       0.996352851390839                       0                       0                       0                       4 
                 1.0501      0.0130032508127032         1.8594022377639        1.81539010565316      0.0251259056484961        7.01993044404328        2.45342024701839        1.84725400076236   4.22088477722033E-014                       0                       0                       0                       0   4.22088477722033E-014                       0                       0       0.994534313678741       0.996352851390839                       0                       0                       0                       4 
                 1.0501      0.0132533133283321        1.85880163051904        1.81456945759145      0.0251261320164366        7.01664248603787         2.4523110552885        1.84701553750768   4.22088477722033E-014                       0                       0                       0                       0   4.22088477722033E-014                       0                       0       0.994534313678741       0.996352851390839                       0                       0                       0                       4 
                 1.0501       0.013503375843961         1.8582888031005        1.81386826027785      0.0252352023068681        7.01383955718845        2.45136533573217        1.84681275531102   4.22088477722033E-014                       0                       0                       0                       0   4.22088477722033E-014                       0                       0       0.994534313678741       0.996352851390839                       0                       0                       0                       4 