VARIABLES = "x"
 "y"
 "rho"
 "rhoU"
 "rhoV"
 "rhoE"
 "P"
 "T"
 "ABV"
 "error"
 "error_hMLP"
 "error_BD"
 "ABV_P"
 "ABV_I"
 "ABV_I_BD"
 "ABV_D"
 "Ducros"
 "Sk"
 "trouble_vertex"
 "trouble_face"
 "hMLP_penalty"
 "BD_penalty"
ZONE
DT=(DOUBLE,DOUBLE,DOUBLE,DOUBLE,DOUBLE,DOUBLE,DOUBLE,DOUBLE,DOUBLE,DOUBLE,DOUBLE,DOUBLE,DOUBLE,DOUBLE,DOUBLE,DOUBLE,DOUBLE,DOUBLE,DOUBLE,DOUBLE,DOUBLE,DOUBLE)
                 0.5201                       0        1.94387582937262        1.71677825554078  -5.47199148583203E-005        7.35023420893642        2.63685124320029        1.89908823563662   5.53113910424342E-019                       0                       0                       0                       0   3.43998851709997E-019    2.0911503286495E-019                       0      0.0415989086031914       0.997351109981537                       0                       0                       0                       3 
                 0.5201    0.000250062515628907        1.94392321782625         1.7170002102559   -0.000271234895169191        7.35043277779429        2.63685964950233        1.89904801937262   5.53113910424342E-019                       0                       0                       0                       0   3.43998851709997E-019    2.0911503286495E-019                       0      0.0415989086031914       0.997351109981537                       0                       0                       0                       3 
                 0.5201    0.000500125031257815        1.94396869263824        1.71722311284959   -0.000470810113497494        7.35063113203814        2.63686734042432        1.89900916233071   5.53113910424342E-019                       0                       0                       0                       0   3.43998851709997E-019    2.0911503286495E-019                       0      0.0415989086031914       0.997351109981537                       0                       0                       0                       3 
                 0.5201    0.000750187546886722        1.94404037784633        1.71751301250132   -0.000683590722884771         7.3508914951507        2.63688019875203        1.89894839608591   5.53113910424342E-019                       0                       0                       0                       0   3.43998851709997E-019    2.0911503286495E-019                       0      0.0415989086031914       0.997351109981537                       0                       0                       0                       3 
                 0.5201     0.00100025006251563        1.94415989981624        1.71793876037444   -0.000883144372856562        7.35127483643643        2.63690169035292        1.89884715852801   5.53113910424342E-019                       0                       0                       0                       0   3.43998851709997E-019    2.0911503286495E-019                       0      0.0415989086031914       0.997351109981537                       0                       0                       0                       3 
                 0.5201     0.00125031257814454        1.94427910910706        1.71836466753691      -0.001079904041183        7.35165813052531        2.63692306396171        1.89874614810491   5.53113910424342E-019                       0                       0                       0                       0   3.43998851709997E-019    2.0911503286495E-019                       0      0.0415989086031914       0.997351109981537                       0                       0                       0                       3 
                 0.5201     0.00150037509377344         1.9444494746682        1.71892518605709    -0.00129172264393253        7.35216517898898        2.63695425721301        1.89860224213206   5.53113910424342E-019                       0                       0                       0                       0   3.43998851709997E-019    2.0911503286495E-019                       0      0.0415989086031914       0.997351109981537                       0                       0                       0                       3 
                 0.5201     0.00175043760940235        1.94464237368952        1.71955405296385    -0.00148566669564001        7.35273341282367        2.63698931350246        1.89843907835627   5.53113910424342E-019                       0                       0                       0                       0   3.43998851709997E-019    2.0911503286495E-019                       0      0.0415989086031914       0.997351109981537                       0                       0                       0                       3 
                 0.5201     0.00200050012503126         1.9447583384033        1.71873788794223      -0.001798447338751        7.35200972557203        2.63700642137034        1.89833820232419   5.16838412345511E-011                       0                       0                       0                       0   5.16838412345511E-011   9.09119366273729E-019                       0     0.00589059991762042       0.996990025043488                       0                       0                       0                       4 
                 0.5201     0.00225056264066016        1.94496424365359        1.71942073645329    -0.00201113193006934        7.35264651932238        2.63705173453309        1.89816984908733   5.16838412345511E-011                       0                       0                       0                       0   5.16838412345511E-011   9.09119366273729E-019                       0     0.00589059991762042       0.996990025043488                       0                       0                       0                       4 
                 0.5201     0.00250062515628907        1.94516550438566        1.72007589580596    -0.00220098304149033        7.35327341900327        2.63710217268145        1.89800977056681   5.16838412345511E-011                       0                       0                       0                       0   5.16838412345511E-011   9.09119366273729E-019                       0     0.00589059991762042       0.996990025043488                       0                       0                       0                       4 
                 0.5201     0.00275068767191798        1.94534173489494        1.72066329625923     -0.0024228012079318          7.353838599488        2.63714789324734        1.89787072584591   5.16838412345511E-011                       0                       0                       0                       0   5.16838412345511E-011   9.09119366273729E-019                       0     0.00589059991762042       0.996990025043488                       0                       0                       0                       4 
                 0.5201     0.00300075018754689        1.94545757697382         1.7210516670254    -0.00265408780988026        7.35425837274919        2.63719642871845        1.89779262643112   5.16838412345511E-011                       0                       0                       0                       0   5.16838412345511E-011   9.09119366273729E-019                       0     0.00589059991762042       0.996990025043488                       0                       0                       0                       4 
                 0.5201     0.00325081270317579        1.94557267249558        1.72143558705252     -0.0028817041800736        7.35467654420198        2.63724579369748        1.89771585136862   5.16838412345511E-011                       0                       0                       0                       0   5.16838412345511E-011   9.09119366273729E-019                       0     0.00589059991762042       0.996990025043488                       0                       0                       0                       4 
                 0.5201      0.0035008752188047        1.94563467529737         1.7216656352152    -0.00315757144348496        7.35496481173873        2.63728922901122        1.89768659696025   5.16838412345511E-011                       0                       0                       0                       0   5.16838412345511E-011   9.09119366273729E-019                       0     0.00589059991762042       0.996990025043488                       0                       0                       0                       4 
                 0.5201     0.00375093773443361        1.94566356096445        1.72177836086025    -0.00342295300775542        7.35517425518236        2.63733743140922        1.89769308058522   5.16838412345511E-011                       0                       0                       0                       0   5.16838412345511E-011   9.09119366273729E-019                       0     0.00589059991762042       0.996990025043488                       0                       0                       0                       4 
                 0.5201     0.00400100025006252        1.94578575257584        1.72320113631859    -0.00388727199045233        7.35627881341438         2.6372941966753        1.89754291713607   1.03252142946708E-010                       0                       0                       0                       0   1.03252136007814E-010   1.41478490429232E-018                       0     0.00040725598228164        0.99706506729126                       1                       0                       0                       4 
                 0.5201     0.00425106276569142        1.94577696260004        1.72317477898828    -0.00409076281643464        7.35643142887431        2.63736298655199        1.89760099505778   1.03252142946708E-010                       0                       0                       0                       0   1.03252136007814E-010   1.41478490429232E-018                       0     0.00040725598228164        0.99706506729126                       1                       0                       0                       4 
                 0.5201     0.00450112528132033        1.94575684099128        1.72307524409691    -0.00425155761383269        7.35655019108072        2.63744239983459         1.8976777701739   1.03252142946708E-010                       0                       0                       0                       0   1.03252136007814E-010   1.41478490429232E-018                       0     0.00040725598228164        0.99706506729126                       1                       0                       0                       4 
                 0.5201     0.00475118779694924         1.9457640749727         1.7230675847008    -0.00449365674968493        7.35672469215363         2.6375157676652        1.89772351708576   1.03252142946708E-010                       0                       0                       0                       0   1.03252136007814E-010   1.41478490429232E-018                       0     0.00040725598228164        0.99706506729126                       1                       0                       0                       4 
                 0.5201     0.00500125031257814        1.94579800096814        1.72306647485852    -0.00479385191774308        7.35692799772484        2.63760262904736        1.89775286943518   1.03252142946708E-010                       0                       0                       0                       0   1.03252136007814E-010   1.41478490429232E-018                       0     0.00040725598228164        0.99706506729126                       1                       0                       0                       4 
                 0.5201     0.00525131282820705        1.94583015080502        1.72305391004049    -0.00508736520062188        7.35712599421682         2.6376911640641        1.89778515341603   1.03252142946708E-010                       0                       0                       0                       0   1.03252136007814E-010   1.41478490429232E-018                       0     0.00040725598228164        0.99706506729126                       1                       0                       0                       4 
                 0.5201     0.00550137534383596        1.94590893323323        1.72317372361324    -0.00551319264007485        7.35741179196811        2.63777487072471        1.89776853959646   1.03252142946708E-010                       0                       0                       0                       0   1.03252136007814E-010   1.41478490429232E-018                       0     0.00040725598228164        0.99706506729126                       1                       0                       0                       4 
                 0.5201     0.00575143785946487        1.94599344393102        1.72324812879902    -0.00593942443341493        7.35768955940445        2.63787234867243        1.89775624306636   1.03252142946708E-010                       0                       0                       0                       0   1.03252136007814E-010   1.41478490429232E-018                       0     0.00040725598228164        0.99706506729126                       1                       0                       0                       4 
                 0.5201     0.00600150037509377        1.94603584573221         1.7227475443866    -0.00650893753592473        7.35719435796141        2.63785754502389        1.89770429807034   2.37966313321181E-010                       0                       0                       0                       0   2.37966285565605E-010    7.7431856017303E-018                       0    0.000969629385508597       0.995758295059204                       0                       0                       0                       4 
                 0.5201     0.00625156289072268         1.9461668469482        1.72331787947732    -0.00693294825797963        7.35778177351545        2.63791037599552        1.89761454951642   2.37966313321181E-010                       0                       0                       0                       0   2.37966285565605E-010    7.7431856017303E-018                       0    0.000969629385508597       0.995758295059204                       0                       0                       0                       4 
                 0.5201     0.00650162540635159        1.94626955651054        1.72378711506603    -0.00727686840628059        7.35829259373323        2.63796412301073        1.89755302215125   2.37966313321181E-010                       0                       0                       0                       0   2.37966285565605E-010    7.7431856017303E-018                       0    0.000969629385508597       0.995758295059204                       0                       0                       0                       4 
                 0.5201     0.00675168792198049        1.94640974140459         1.7243830522717    -0.00775192887291241        7.35890101710394         2.6380174443557         1.8974546883946   2.37966313321181E-010                       0                       0                       0                       0   2.37966285565605E-010    7.7431856017303E-018                       0    0.000969629385508597       0.995758295059204                       0                       0                       0                       4 
                 0.5201      0.0070017504376094        1.94655520953544        1.72498371213881    -0.00829045679957034        7.35951597769794         2.6380724613862        1.89735245400218   2.37966313321181E-010                       0                       0                       0                       0   2.37966285565605E-010    7.7431856017303E-018                       0    0.000969629385508597       0.995758295059204                       0                       0                       0                       4 
                 0.5201     0.00725181295323831        1.94669637379962        1.72556898266584    -0.00881679337024957        7.36011926824348        2.63812763930891        1.89725452883951   2.37966313321181E-010                       0                       0                       0                       0   2.37966285565605E-010    7.7431856017303E-018                       0    0.000969629385508597       0.995758295059204                       0                       0                       0                       4 
                 0.5201     0.00750187546886722        1.94689216096991        1.72633512924114    -0.00954738777786363        7.36086271631607        2.63818238461355        1.89710316934373   2.37966313321181E-010                       0                       0                       0                       0   2.37966285565605E-010    7.7431856017303E-018                       0    0.000969629385508597       0.995758295059204                       0                       0                       0                       4 
                 0.5201     0.00775193798449612        1.94707177961325        1.72703647811363     -0.0102561390165807        7.36155847586061        2.63823872503939        1.89696871247031   2.37966313321181E-010                       0                       0                       0                       0   2.37966285565605E-010    7.7431856017303E-018                       0    0.000969629385508597       0.995758295059204                       0                       0                       0                       4 
                 0.5201     0.00800200050012503        1.94713788183451        1.72595451046923     -0.0106132180820057        7.36107379622017        2.63843840860789        1.89704791025801   1.40274969417931E-009   5.47862200050986E-008   5.47862200050986E-008                       0   5.20469112252897E-010    8.8228063743756E-010    2.6710262512462E-017                       0     0.00131133245304227       0.995285093784332                       1                       0                       0                       4 
                 0.5201     0.00825206301575394        1.94744621452802        1.72730515248731     -0.0117538675591553        7.36220262529782        2.63845597835266        1.89676028853547   1.40274969417931E-009   5.47862200050986E-008   5.47862200050986E-008                       0   5.20469112252897E-010    8.8228063743756E-010    2.6710262512462E-017                       0     0.00131133245304227       0.995285093784332                       1                       0                       0                       4 
                 0.5201     0.00850212553138285        1.94772170190182        1.72861292382663     -0.0128418884198901        7.36328329058755        2.63846510015501        1.89649848386519   1.40274969417931E-009   5.47862200050986E-008   5.47862200050986E-008                       0   5.20469112252897E-010    8.8228063743756E-010    2.6710262512462E-017                       0     0.00131133245304227       0.995285093784332                       1                       0                       0                       4 
                 0.5201     0.00875218804701175        1.94804291369218        1.72999209518175     -0.0139958442474363        7.36444555609309        2.63848746525023         1.8962018889029   1.40274969417931E-009   5.47862200050986E-008   5.47862200050986E-008                       0   5.20469112252897E-010    8.8228063743756E-010    2.6710262512462E-017                       0     0.00131133245304227       0.995285093784332                       1                       0                       0                       4 
                 0.5201     0.00900225056264066        1.94837315966325        1.73140564755176     -0.0151501719828337        7.36564923273486        2.63851517530685        1.89590044753664   1.40274969417931E-009   5.47862200050986E-008   5.47862200050986E-008                       0   5.20469112252897E-010    8.8228063743756E-010    2.6710262512462E-017                       0     0.00131133245304227       0.995285093784332                       1                       0                       0                       4 
                 0.5201     0.00925231307826957        1.94869854820709        1.73281286245668     -0.0162967165189102        7.36684579690046        2.63854164638256         1.8956028267935   1.40274969417931E-009   5.47862200050986E-008   5.47862200050986E-008                       0   5.20469112252897E-010    8.8228063743756E-010    2.6710262512462E-017                       0     0.00131133245304227       0.995285093784332                       1                       0                       0                       4 
                 0.5201     0.00950237559389847        1.94909112536953        1.73433096973063     -0.0175365273234494        7.36816961467316        2.63858813040571        1.89525458422364   1.40274969417931E-009   5.47862200050986E-008   5.47862200050986E-008                       0   5.20469112252897E-010    8.8228063743756E-010    2.6710262512462E-017                       0     0.00131133245304227       0.995285093784332                       1                       0                       0                       4 
                 0.5201     0.00975243810952738        1.94946632603894        1.73583754059878     -0.0187415977534814        7.36948172150707        2.63863177190891        1.89492110232727   1.40274969417931E-009   5.47862200050986E-008   5.47862200050986E-008                       0   5.20469112252897E-010    8.8228063743756E-010    2.6710262512462E-017                       0     0.00131133245304227       0.995285093784332                       1                       0                       0                       4 
                 0.5201      0.0100025006251563        1.94975350263281        1.73631379023723     -0.0191993160979043        7.37084094785323        2.63904990870853        1.89494218658681   5.02733410456813E-009                       0                       0                       0                       0   5.02733410456813E-009   8.69157116964338E-017                       0     0.00248152948915958       0.998442113399506                       0                       0                       0                       4 
                 0.5201      0.0102525631407852        1.95032913471025        1.73805055974105     -0.0209958850688345        7.37238829380031        2.63913247265071         1.8944426092874   5.02733410456813E-009                       0                       0                       0                       0   5.02733410456813E-009   8.69157116964338E-017                       0     0.00248152948915958       0.998442113399506                       0                       0                       0                       4 
                 0.5201      0.0105026256564141        1.95090729519834        1.73987071448414     -0.0228744720845653        7.37401089919797        2.63921653620195        1.89394135800578   5.02733410456813E-009                       0                       0                       0                       0   5.02733410456813E-009   8.69157116964338E-017                       0     0.00248152948915958       0.998442113399506                       0                       0                       0                       4 
                 0.5201       0.010752688172043        1.95149057784638        1.74163198746056     -0.0246138621443706        7.37557800683854        2.63929921538564        1.89343470769068   5.02733410456813E-009                       0                       0                       0                       0   5.02733410456813E-009   8.69157116964338E-017                       0     0.00248152948915958       0.998442113399506                       0                       0                       0                       4 
                 0.5201      0.0110027506876719        1.95208970684476        1.74348287457401     -0.0262863555553007        7.37722163766754        2.63938229388305        1.89291320266752   5.02733410456813E-009                       0                       0                       0                       0   5.02733410456813E-009   8.69157116964338E-017                       0     0.00248152948915958       0.998442113399506                       0                       0                       0                       4 
                 0.5201      0.0112528132033008        1.95268919622325        1.74534573181254       -0.02797062036609         7.3788760798995        2.63946555257051        1.89239142735929   5.02733410456813E-009                       0                       0                       0                       0   5.02733410456813E-009   8.69157116964338E-017                       0     0.00248152948915958       0.998442113399506                       0                       0                       0                       4 
                 0.5201      0.0115028757189297        1.95330061397023         1.7471519694576     -0.0294390144312036        7.38047474700387        2.63954757809853        1.89185819151859   5.02733410456813E-009                       0                       0                       0                       0   5.02733410456813E-009   8.69157116964338E-017                       0     0.00248152948915958       0.998442113399506                       0                       0                       0                       4 
                 0.5201      0.0117529382345586        1.95392152166842        1.74905748447692     -0.0309289591330509        7.38216066835289        2.63963038963943        1.89131629461564   5.02733410456813E-009                       0                       0                       0                       0   5.02733410456813E-009   8.69157116964338E-017                       0     0.00248152948915958       0.998442113399506                       0                       0                       0                       4 
                 0.5201      0.0120030007501875        1.95453963640192        1.75190431591684     -0.0322734089230932        7.38469533480315        2.63971577135644        1.89077905277295   8.04503414997271E-008   6.51232085147058E-006   6.51232085147058E-006                       0   6.18670483731876E-008   1.85825772547332E-008   4.03590102952332E-016   7.13861261769644E-013      0.0545288175344467       0.994129002094269                       1                       0                       0                       4 
                 0.5201      0.0122530632658165        1.95513937409014        1.75302008673085     -0.0334317000704603        7.38580878159694        2.63984921292873        1.89029501220146   8.04503414997271E-008   6.51232085147058E-006   6.51232085147058E-006                       0   6.18670483731876E-008   1.85825772547332E-008   4.03590102952332E-016   7.13861261769644E-013      0.0545288175344467       0.994129002094269                       1                       0                       0                       4 
                 0.5201      0.0125031257814454        1.95578836259162        1.75427160520735     -0.0347407649105009        7.38706579997599        2.63999864930546        1.88977448890357   8.04503414997271E-008   6.51232085147058E-006   6.51232085147058E-006                       0   6.18670483731876E-008   1.85825772547332E-008   4.03590102952332E-016   7.13861261769644E-013      0.0545288175344467       0.994129002094269                       1                       0                       0                       4 
                 0.5201      0.0127531882970743         1.9563858009467        1.75539763651776     -0.0358210479343282        7.38816550686389        2.64012305322816        1.88928636236634   8.04503414997271E-008   6.51232085147058E-006   6.51232085147058E-006                       0   6.18670483731876E-008   1.85825772547332E-008   4.03590102952332E-016   7.13861261769644E-013      0.0545288175344467       0.994129002094269                       1                       0                       0                       4 
                 0.5201      0.0130032508127032        1.95700589385294        1.75661748277393     -0.0368365412976351        7.38931795290255        2.64023846634898        1.88877038483685   8.04503414997271E-008   6.51232085147058E-006   6.51232085147058E-006                       0   6.18670483731876E-008   1.85825772547332E-008   4.03590102952332E-016   7.13861261769644E-013      0.0545288175344467       0.994129002094269                       1                       0                       0                       4 
                 0.5201      0.0132533133283321        1.95763283802955        1.75785621285912     -0.0378730088333012         7.3904903711545        2.64035606589142        1.88824932496309   8.04503414997271E-008   6.51232085147058E-006   6.51232085147058E-006                       0   6.18670483731876E-008   1.85825772547332E-008   4.03590102952332E-016   7.13861261769644E-013      0.0545288175344467       0.994129002094269                       1                       0                       0                       4 
                 0.5201       0.013503375843961        1.95819403051593        1.75894631851661     -0.0385686722172686        7.39145749254379        2.64043639255436        1.88776578318262   8.04503414997271E-008   6.51232085147058E-006   6.51232085147058E-006                       0   6.18670483731876E-008   1.85825772547332E-008   4.03590102952332E-016   7.13861261769644E-013      0.0545288175344467       0.994129002094269                       1                       0                       0                       4 