VARIABLES = "x"
 "y"
 "rho"
 "rhoU"
 "rhoV"
 "rhoE"
 "P"
 "T"
 "ABV"
 "error"
 "error_hMLP"
 "error_BD"
 "ABV_P"
 "ABV_I"
 "ABV_I_BD"
 "ABV_D"
 "Ducros"
 "Sk"
 "trouble_vertex"
 "trouble_face"
 "hMLP_penalty"
 "BD_penalty"
ZONE
DT=(DOUBLE,DOUBLE,DOUBLE,DOUBLE,DOUBLE,DOUBLE,DOUBLE,DOUBLE,DOUBLE,DOUBLE,DOUBLE,DOUBLE,DOUBLE,DOUBLE,DOUBLE,DOUBLE,DOUBLE,DOUBLE,DOUBLE,DOUBLE,DOUBLE,DOUBLE)
                 0.5201                       0        1.94364034396313         1.7162830304468  -7.64730447968918E-006        7.35031806769377        2.63702295053785        1.89944207291788   4.94415793028669E-011                       0                       0                       0                       0   4.94415342000565E-011    4.3743213307213E-017                       0       0.527257680892944       0.999033033847809                       0                       0                       0                       3 
                 0.5201    0.000250062515628907         1.9436569956898        1.71630953940505   -0.000170071653830963        7.35035415877615        2.63703062954965        1.89943131399716   4.94415793028669E-011                       0                       0                       0                       0   4.94415342000565E-011    4.3743213307213E-017                       0       0.527257680892944       0.999033033847809                       0                       0                       0                       3 
                 0.5201    0.000500125031257815        1.94367348049546        1.71633265986666   -0.000315474998725392        7.35038771265905        2.63703847548247        1.89942083884217   4.94415793028669E-011                       0                       0                       0                       0   4.94415342000565E-011    4.3743213307213E-017                       0       0.527257680892944       0.999033033847809                       0                       0                       0                       3 
                 0.5201    0.000750187546886722        1.94369564549537        1.71638681767657   -0.000468662231933815        7.35045084189935        2.63704805902746        1.89940607358267   4.94415793028669E-011                       0                       0                       0                       0   4.94415342000565E-011    4.3743213307213E-017                       0       0.527257680892944       0.999033033847809                       0                       0                       0                       3 
                 0.5201     0.00100025006251563         1.9437485594663        1.71661463628823    -0.00063594881654318        7.35068244871496        2.63706844219588        1.89936903767748   4.94415793028669E-011                       0                       0                       0                       0   4.94415342000565E-011    4.3743213307213E-017                       0       0.527257680892944       0.999033033847809                       0                       0                       0                       3 
                 0.5201     0.00125031257814454        1.94380039270333         1.7168384957757   -0.000792086983738435        7.35091131624466          2.637088975169        1.89933314670819   4.94415793028669E-011                       0                       0                       0                       0   4.94415342000565E-011    4.3743213307213E-017                       0       0.527257680892944       0.999033033847809                       0                       0                       0                       3 
                 0.5201     0.00150037509377344        1.94386569543282        1.71709689181092   -0.000963978345641441        7.35117201204373        2.63711209658577        1.89928596724985   4.94415793028669E-011                       0                       0                       0                       0   4.94415342000565E-011    4.3743213307213E-017                       0       0.527257680892944       0.999033033847809                       0                       0                       0                       3 
                 0.5201     0.00175043760940235        1.94395732851703        1.71742114531775    -0.00113558185575638        7.35149795092438        2.63714216238899        1.89921813114186   4.94415793028669E-011                       0                       0                       0                       0   4.94415342000565E-011    4.3743213307213E-017                       0       0.527257680892944       0.999033033847809                       0                       0                       0                       3 
                 0.5201     0.00200050012503126        1.94404805755608        1.71774287032326    -0.00130217522129493        7.35182213821752        2.63717229411216        1.89915123203902   4.94415793028669E-011                       0                       0                       0                       0   4.94415342000565E-011    4.3743213307213E-017                       0       0.527257680892944       0.999033033847809                       0                       0                       0                       3 
                 0.5201     0.00225056264066016        1.94416182729085        1.71807424471814    -0.00149128262017854        7.35215255043171        2.63720503737505        1.89906367396165   4.94415793028669E-011                       0                       0                       0                       0   4.94415342000565E-011    4.3743213307213E-017                       0       0.527257680892944       0.999033033847809                       0                       0                       0                       3 
                 0.5201     0.00250062515628907        1.94429508293687        1.71839112856412    -0.00166805153903949        7.35247289817328        2.63724192994977        1.89896004922972   4.94415793028669E-011                       0                       0                       0                       0   4.94415342000565E-011    4.3743213307213E-017                       0       0.527257680892944       0.999033033847809                       0                       0                       0                       3 
                 0.5201     0.00275068767191798        1.94442833858289        1.71870801241011    -0.00184482045790043        7.35279324591486        2.63727882252449        1.89885642449779   4.94415793028669E-011                       0                       0                       0                       0   4.94415342000565E-011    4.3743213307213E-017                       0       0.527257680892944       0.999033033847809                       0                       0                       0                       3 
                 0.5201     0.00300075018754689        1.94451704811314        1.71880116452844    -0.00204118773171287        7.35293164532186        2.63731505417377        1.89879593034996   1.62860303021262E-009                       0                       0                       0                       0   1.62860303021262E-009                       0                       0      0.0638400986790657       0.998890042304993                       0                       0                       0                       4 
                 0.5201     0.00325081270317579        1.94468177095524        1.71921541305409    -0.00226200353581371        7.35331576212924        2.63734785684767        1.89865871000417   1.62860303021262E-009                       0                       0                       0                       0   1.62860303021262E-009                       0                       0      0.0638400986790657       0.998890042304993                       0                       0                       0                       4 
                 0.5201      0.0035008752188047        1.94484649379735        1.71962966157973    -0.00248281933991455        7.35369987893662        2.63738065952157        1.89852148965837   1.62860303021262E-009                       0                       0                       0                       0   1.62860303021262E-009                       0                       0      0.0638400986790657       0.998890042304993                       0                       0                       0                       4 
                 0.5201     0.00375093773443361        1.94498554782577        1.72005541110107    -0.00273938213761653         7.3540997651403        2.63741160301671        1.89840801989815   1.62860303021262E-009                       0                       0                       0                       0   1.62860303021262E-009                       0                       0      0.0638400986790657       0.998890042304993                       0                       0                       0                       4 
                 0.5201     0.00400100025006252        1.94510528179791        1.72045521990313    -0.00298687273275444        7.35448454981202         2.6374426528861        1.89831353481174   1.62860303021262E-009                       0                       0                       0                       0   1.62860303021262E-009                       0                       0      0.0638400986790657       0.998890042304993                       0                       0                       0                       4 
                 0.5201     0.00425106276569142        1.94522501577005        1.72085502870519    -0.00323436332789236        7.35486933448373        2.63747370275549        1.89821904972532   1.62860303021262E-009                       0                       0                       0                       0   1.62860303021262E-009                       0                       0      0.0638400986790657       0.998890042304993                       0                       0                       0                       4 
                 0.5201     0.00450112528132033        1.94532907302985        1.72125598017888    -0.00354000578187829        7.35525424832832         2.6375017506669         1.8981377273259   1.62860303021262E-009                       0                       0                       0                       0   1.62860303021262E-009                       0                       0      0.0638400986790657       0.998890042304993                       0                       0                       0                       4 
                 0.5201     0.00475118779694924        1.94542134620033        1.72162198456835    -0.00383196671324484        7.35561616281698        2.63753121464625         1.8980689084846   1.62860303021262E-009                       0                       0                       0                       0   1.62860303021262E-009                       0                       0      0.0638400986790657       0.998890042304993                       0                       0                       0                       4 
                 0.5201     0.00500125031257814        1.94551368615067        1.72198820640974     -0.0041245276692298        7.35597814742449        2.63756063814032        1.89799999552543   1.62860303021262E-009                       0                       0                       0                       0   1.62860303021262E-009                       0                       0      0.0638400986790657       0.998890042304993                       0                       0                       0                       4 
                 0.5201     0.00525131282820705        1.94560514869946        1.72233919242667    -0.00450155546523585        7.35631732004125        2.63758594482709        1.89792896946942   1.62860303021262E-009                       0                       0                       0                       0   1.62860303021262E-009                       0                       0      0.0638400986790657       0.998890042304993                       0                       0                       0                       4 
                 0.5201     0.00550137534383596        1.94568736405263        1.72265198637184    -0.00485578264230749        7.35663249280628        2.63761382292653        1.89786878950025   1.62860303021262E-009                       0                       0                       0                       0   1.62860303021262E-009                       0                       0      0.0638400986790657       0.998890042304993                       0                       0                       0                       4 
                 0.5201     0.00575143785946487        1.94579489326325        1.72331576755443    -0.00529713446873162        7.35709315563165        2.63757932001818        1.89773913395029   2.53072740541427E-009                       0                       0                       0                       0   2.53072740541427E-009                       0                       0      0.0215526260435581        0.99881374835968                       0                       0                       0                       4 
                 0.5201     0.00600150037509377         1.9458788345801        1.72359178997299    -0.00566126368815468        7.35734362753842        2.63759445746406        1.89766819582895   2.53072740541427E-009                       0                       0                       0                       0   2.53072740541427E-009                       0                       0      0.0215526260435581        0.99881374835968                       0                       0                       0                       4 
                 0.5201     0.00625156289072268        1.94595445601154        1.72382720967208    -0.00600109176686868        7.35756648539928        2.63761173520833        1.89760688905037   2.53072740541427E-009                       0                       0                       0                       0   2.53072740541427E-009                       0                       0      0.0215526260435581        0.99881374835968                       0                       0                       0                       4 
                 0.5201     0.00650162540635159        1.94605085294976        1.72415337590698    -0.00640347401715995        7.35784728058894        2.63762306315958        1.89752103937557   2.53072740541427E-009                       0                       0                       0                       0   2.53072740541427E-009                       0                       0      0.0215526260435581        0.99881374835968                       0                       0                       0                       4 
                 0.5201     0.00675168792198049        1.94616541859003         1.7245599044302    -0.00686300225983194        7.35817224482105        2.63762623014198        1.89741161605838   2.53072740541427E-009                       0                       0                       0                       0   2.53072740541427E-009                       0                       0      0.0215526260435581        0.99881374835968                       0                       0                       0                       4 
                 0.5201      0.0070017504376094        1.94627609631419        1.72494957181726    -0.00731111913546692        7.35848558130408        2.63763015310807        1.89730653064758   2.53072740541427E-009                       0                       0                       0                       0   2.53072740541427E-009                       0                       0      0.0215526260435581        0.99881374835968                       0                       0                       0                       4 
                 0.5201     0.00725181295323831        1.94641812845822        1.72546106735199    -0.00785091693617336        7.35887986570943          2.637627808462        1.89716640225935   2.53072740541427E-009                       0                       0                       0                       0   2.53072740541427E-009                       0                       0      0.0215526260435581        0.99881374835968                       0                       0                       0                       4 
                 0.5201     0.00750187546886722        1.94656494755083        1.72599154418148    -0.00840388300344607         7.3592816775979        2.63762263348546        1.89701958316674   2.53072740541427E-009                       0                       0                       0                       0   2.53072740541427E-009                       0                       0      0.0215526260435581        0.99881374835968                       0                       0                       0                       4 
                 0.5201     0.00775193798449612        1.94671176664344        1.72652202101097    -0.00895684907071877        7.35968348948637        2.63761745850891        1.89687276407414   2.53072740541427E-009                       0                       0                       0                       0   2.53072740541427E-009                       0                       0      0.0215526260435581        0.99881374835968                       0                       0                       0                       4 
                 0.5201     0.00800200050012503        1.94689687026653        1.72718467132938    -0.00961822403994829        7.36017744392906        2.63760754631206         1.8966853361594   2.53072740541427E-009                       0                       0                       0                       0   2.53072740541427E-009                       0                       0      0.0215526260435581        0.99881374835968                       0                       0                       0                       4 
                 0.5201     0.00825206301575394        1.94708079072217        1.72784251978462     -0.0102726001201801        7.36066639606391        2.63759736328706        1.89649878648009   2.53072740541427E-009                       0                       0                       0                       0   2.53072740541427E-009                       0                       0      0.0215526260435581        0.99881374835968                       0                       0                       0                       4 
                 0.5201     0.00850212553138285        1.94726471117781        1.72850036823986     -0.0109269762004119        7.36115534819875        2.63758718026206        1.89631223680078   2.53072740541427E-009                       0                       0                       0                       0   2.53072740541427E-009                       0                       0      0.0215526260435581        0.99881374835968                       0                       0                       0                       4 
                 0.5201     0.00875218804701175        1.94752392785992        1.72928093861402     -0.0119581700858197        7.36156656775155        2.63751239182457         1.8960062633155   8.98761332024378E-009   1.47974589026489E-007   1.47974589026489E-007                       0   1.40575850959834E-009   7.58185514371235E-009                       0                       0     0.00529265170916915       0.998014628887177                       1                       0                       0                       4 
                 0.5201     0.00900225056264066        1.94773718683494        1.73010083799235     -0.0126023632792522         7.3622216191942        2.63751522971308        1.89580072506659   8.98761332024378E-009   1.47974589026489E-007   1.47974589026489E-007                       0   1.40575850959834E-009   7.58185514371235E-009                       0                       0     0.00529265170916915       0.998014628887177                       1                       0                       0                       4 
                 0.5201     0.00925231307826957        1.94795044580997        1.73092073737068     -0.0132465564726848        7.36287667063684         2.6375180676016        1.89559518681767   8.98761332024378E-009   1.47974589026489E-007   1.47974589026489E-007                       0   1.40575850959834E-009   7.58185514371235E-009                       0                       0     0.00529265170916915       0.998014628887177                       1                       0                       0                       4 
                 0.5201     0.00950237559389847        1.94822258397982        1.73199941854077     -0.0141903240486665        7.36368047128026        2.63749582274637        1.89531452063372   8.98761332024378E-009   1.47974589026489E-007   1.47974589026489E-007                       0   1.40575850959834E-009   7.58185514371235E-009                       0                       0     0.00529265170916915       0.998014628887177                       1                       0                       0                       4 
                 0.5201     0.00975243810952738        1.94846706004724        1.73299985901333     -0.0150817192302363        7.36440463459913         2.6374658579433        1.89505506216475   8.98761332024378E-009   1.47974589026489E-007   1.47974589026489E-007                       0   1.40575850959834E-009   7.58185514371235E-009                       0                       0     0.00529265170916915       0.998014628887177                       1                       0                       0                       4 
                 0.5201      0.0100025006251563        1.94871269849765        1.73400382085602     -0.0159764199260737        7.36513137894844        2.63743581801332        1.89479442628755   8.98761332024378E-009   1.47974589026489E-007   1.47974589026489E-007                       0   1.40575850959834E-009   7.58185514371235E-009                       0                       0     0.00529265170916915       0.998014628887177                       1                       0                       0                       4 
                 0.5201      0.0102525631407852        1.94902548877426        1.73524798821693     -0.0171087583648311        7.36600048277276        2.63738535713885         1.8944543311735   8.98761332024378E-009   1.47974589026489E-007   1.47974589026489E-007                       0   1.40575850959834E-009   7.58185514371235E-009                       0                       0     0.00529265170916915       0.998014628887177                       1                       0                       0                       4 
                 0.5201      0.0105026256564141        1.94930765001303        1.73642287406131     -0.0181838332835636        7.36679726170643        2.63732659615317        1.89413794833796   8.98761332024378E-009   1.47974589026489E-007   1.47974589026489E-007                       0   1.40575850959834E-009   7.58185514371235E-009                       0                       0     0.00529265170916915       0.998014628887177                       1                       0                       0                       4 
                 0.5201       0.010752688172043        1.94960848088978        1.73763886782909     -0.0192896759443175        7.36762857279588        2.63726936051117        1.89380462630283   8.98761332024378E-009   1.47974589026489E-007   1.47974589026489E-007                       0   1.40575850959834E-009   7.58185514371235E-009                       0                       0     0.00529265170916915       0.998014628887177                       1                       0                       0                       4 
                 0.5201      0.0110027506876719        1.94995374600687        1.73900645683257     -0.0205046714671783        7.36853799802431        2.63719474252733        1.89341583891167   8.98761332024378E-009   1.47974589026489E-007   1.47974589026489E-007                       0   1.40575850959834E-009   7.58185514371235E-009                       0                       0     0.00529265170916915       0.998014628887177                       1                       0                       0                       4 
                 0.5201      0.0112528132033008        1.95027989494284        1.74034953105617     -0.0216999092432932        7.36941073334728        2.63711169244638        1.89303944259005   8.98761332024378E-009   1.47974589026489E-007   1.47974589026489E-007                       0   1.40575850959834E-009   7.58185514371235E-009                       0                       0     0.00529265170916915       0.998014628887177                       1                       0                       0                       4 
                 0.5201      0.0115028757189297        1.95069024307179        1.74118251836923     -0.0225579111953595        7.37025531935484        2.63721324945322        1.89271417606099   3.49071953564817E-008   7.87324381690269E-007   7.87324381690269E-007                       0    7.4795822868623E-009   2.74275695488768E-008                       0   4.39175232909862E-014     0.00949946045875549        0.99693363904953                       1                       0                       0                       4 
                 0.5201      0.0117529382345586        1.95107895688968        1.74291197621485     -0.0240627150135295         7.3715185270293        2.63715516835489        1.89229550642458   3.49071953564817E-008   7.87324381690269E-007   7.87324381690269E-007                       0    7.4795822868623E-009   2.74275695488768E-008                       0   4.39175232909862E-014     0.00949946045875549        0.99693363904953                       1                       0                       0                       4 
                 0.5201      0.0120030007501875        1.95146211357259        1.74464938998962     -0.0255784213565743        7.37278489304457        2.63709482149034        1.89188054869687   3.49071953564817E-008   7.87324381690269E-007   7.87324381690269E-007                       0    7.4795822868623E-009   2.74275695488768E-008                       0   4.39175232909862E-014     0.00949946045875549        0.99693363904953                       1                       0                       0                       4 
                 0.5201      0.0122530632658165         1.9518812396746        1.74627925712483     -0.0269960882478436        7.37400520319058        2.63705906275065        1.89144885530131   3.49071953564817E-008   7.87324381690269E-007   7.87324381690269E-007                       0    7.4795822868623E-009   2.74275695488768E-008                       0   4.39175232909862E-014     0.00949946045875549        0.99693363904953                       1                       0                       0                       4 
                 0.5201      0.0125031257814454        1.95232374219131        1.74791137901708     -0.0284289792820469        7.37527190472667        2.63704420555024        1.89100948281278   3.49071953564817E-008   7.87324381690269E-007   7.87324381690269E-007                       0    7.4795822868623E-009   2.74275695488768E-008                       0   4.39175232909862E-014     0.00949946045875549        0.99693363904953                       1                       0                       0                       4 
                 0.5201      0.0127531882970743        1.95276624470802        1.74954350090933     -0.0298618703162501        7.37653860626277        2.63702934834983        1.89057011032424   3.49071953564817E-008   7.87324381690269E-007   7.87324381690269E-007                       0    7.4795822868623E-009   2.74275695488768E-008                       0   4.39175232909862E-014     0.00949946045875549        0.99693363904953                       1                       0                       0                       4 
                 0.5201      0.0130032508127032        1.95323764691678        1.75099367114028     -0.0311272607990585        7.37767875778725        2.63703314668581        1.89011675647994   3.49071953564817E-008   7.87324381690269E-007   7.87324381690269E-007                       0    7.4795822868623E-009   2.74275695488768E-008                       0   4.39175232909862E-014     0.00949946045875549        0.99693363904953                       1                       0                       0                       4 
                 0.5201      0.0132533133283321        1.95373306777653        1.75247071056982     -0.0324115511372351        7.37886599834137        2.63704958976716        1.88964925547153   3.49071953564817E-008   7.87324381690269E-007   7.87324381690269E-007                       0    7.4795822868623E-009   2.74275695488768E-008                       0   4.39175232909862E-014     0.00949946045875549        0.99693363904953                       1                       0                       0                       4 
                 0.5201       0.013503375843961        1.95422848863627        1.75394774999936     -0.0336958414754118         7.3800532388955        2.63706603284851        1.88918175446312   3.49071953564817E-008   7.87324381690269E-007   7.87324381690269E-007                       0    7.4795822868623E-009   2.74275695488768E-008                       0   4.39175232909862E-014     0.00949946045875549        0.99693363904953                       1                       0                       0                       4 