VARIABLES = "x"
 "y"
 "rho"
 "rhoU"
 "rhoV"
 "rhoE"
 "P"
 "T"
 "ABV"
 "error"
 "error_hMLP"
 "error_BD"
 "ABV_P"
 "ABV_I"
 "ABV_I_BD"
 "ABV_D"
 "Ducros"
 "Sk"
 "trouble_vertex"
 "trouble_face"
 "hMLP_penalty"
 "BD_penalty"
ZONE
DT=(DOUBLE,DOUBLE,DOUBLE,DOUBLE,DOUBLE,DOUBLE,DOUBLE,DOUBLE,DOUBLE,DOUBLE,DOUBLE,DOUBLE,DOUBLE,DOUBLE,DOUBLE,DOUBLE,DOUBLE,DOUBLE,DOUBLE,DOUBLE,DOUBLE,DOUBLE)
                 1.0501                       0        1.87533463344173        1.83711375883539  -3.96452458836677E-006        7.10890610903446        2.48362791383601        1.85411129027482   1.69431604163384E-011                       0                       0                       0                       0   1.69431604163384E-011                       0                       0       0.996271252632141       0.999567091464996                       0                       0                       0                       3 
                 1.0501    0.000250062515628907        1.87532389110269        1.83712127079666    0.000931124759681346        7.10887028437635        2.48360838230121        1.85410732554071   1.69431604163384E-011                       0                       0                       0                       0   1.69431604163384E-011                       0                       0       0.996271252632141       0.999567091464996                       0                       0                       0                       3 
                 1.0501    0.000500125031257815        1.87531358288245        1.83712928366422     0.00187006829780194        7.10883673049344        2.48358968561024        1.85410352777535   1.69431604163384E-011                       0                       0                       0                       0   1.69431604163384E-011                       0                       0       0.996271252632141       0.999567091464996                       0                       0                       0                       3 
                 1.0501    0.000750187546886722        1.87530339449752        1.83714616434558      0.0028059981393178        7.10879838319767        2.48356553641213        1.85409554176551   1.69431604163384E-011                       0                       0                       0                       0   1.69431604163384E-011                       0                       0       0.996271252632141       0.999567091464996                       0                       0                       0                       3 
                 1.0501     0.00100025006251563        1.87529572060832        1.83721848741039     0.00373084855791924        7.10874149562483        2.48351215109654        1.85406328581141   1.69431604163384E-011                       0                       0                       0                       0   1.69431604163384E-011                       0                       0       0.996271252632141       0.999567091464996                       0                       0                       0                       3 
                 1.0501     0.00125031257814454        1.87528866761552        1.83729168829425      0.0046580787727367        7.10868807650777        2.48345990052266        1.85403127607485   1.69431604163384E-011                       0                       0                       0                       0   1.69431604163384E-011                       0                       0       0.996271252632141       0.999567091464996                       0                       0                       0                       3 
                 1.0501     0.00150037509377344        1.87528159065549        1.83737046152273     0.00557810985490597        7.10861332670045        2.48339679286653        1.85399118943621   1.69431604163384E-011                       0                       0                       0                       0   1.69431604163384E-011                       0                       0       0.996271252632141       0.999567091464996                       0                       0                       0                       3 
                 1.0501     0.00175043760940235        1.87527778602581        1.83746806632438     0.00648818214607863        7.10850442794871        2.48331295098451        1.85393238392335   1.69431604163384E-011                       0                       0                       0                       0   1.69431604163384E-011                       0                       0       0.996271252632141       0.999567091464996                       0                       0                       0                       3 
                 1.0501     0.00200050012503126        1.87527440559703        1.83756630742737     0.00739926198803064        7.10839792357538        2.48322990094417        1.85387374809085   1.69431604163384E-011                       0                       0                       0                       0   1.69431604163384E-011                       0                       0       0.996271252632141       0.999567091464996                       0                       0                       0                       3 
                 1.0501     0.00225056264066016        1.87527076770491        1.83765490244974     0.00829804747942088        7.10824284606707        2.48313096461587        1.85380349223475   1.69431604163384E-011                       0                       0                       0                       0   1.69431604163384E-011                       0                       0       0.996271252632141       0.999567091464996                       0                       0                       0                       3 
                 1.0501     0.00250062515628907        1.87527151891118        1.83773803594391     0.00918853926295368        7.10805070419601        2.48301986955489        1.85371981620272   1.69431604163384E-011                       0                       0                       0                       0   1.69431604163384E-011                       0                       0       0.996271252632141       0.999567091464996                       0                       0                       0                       3 
                 1.0501     0.00275068767191798        1.87527227011745        1.83782116943807      0.0100790310464865        7.10785856232496        2.48290877449391        1.85363614017069   1.69431604163384E-011                       0                       0                       0                       0   1.69431604163384E-011                       0                       0       0.996271252632141       0.999567091464996                       0                       0                       0                       3 
                 1.0501     0.00300075018754689        1.87527011687159        1.83785812442777      0.0109533340028285        7.10761895113647        2.48279609165432        1.85355410949074   2.27293472931933E-008                       0                       0                       0                       0   2.27293472931933E-008                       0                       0       0.993273854255676       0.999499022960663                       0                       0                       0                       4 
                 1.0501     0.00325081270317579        1.87525672035973        1.83787039413023      0.0118155173083186        7.10730294369781        2.48266020678635        1.85346588448739   2.27293472931933E-008                       0                       0                       0                       0   2.27293472931933E-008                       0                       0       0.993273854255676       0.999499022960663                       0                       0                       0                       4 
                 1.0501      0.0035008752188047        1.87524332384787        1.83788266383268      0.0126777006138086        7.10698693625914        2.48252432191837        1.85337765948405   2.27293472931933E-008                       0                       0                       0                       0   2.27293472931933E-008                       0                       0       0.993273854255676       0.999499022960663                       0                       0                       0                       4 
                 1.0501     0.00375093773443361        1.87520532101168        1.83787756408192      0.0135233058317903        7.10664296889898        2.48237901065531        1.85330674140406   2.27293472931933E-008                       0                       0                       0                       0   2.27293472931933E-008                       0                       0       0.993273854255676       0.999499022960663                       0                       0                       0                       4 
                 1.0501     0.00400100025006252        1.87516062422389        1.83787001028305      0.0143664881972162        7.10630475903135        2.48223553021047        1.85324376525768   2.27293472931933E-008                       0                       0                       0                       0   2.27293472931933E-008                       0                       0       0.993273854255676       0.999499022960663                       0                       0                       0                       4 
                 1.0501     0.00425106276569142         1.8751159274361        1.83786245648418       0.015209670562642        7.10596654916372        2.48209204976564         1.8531807891113   2.27293472931933E-008                       0                       0                       0                       0   2.27293472931933E-008                       0                       0       0.993273854255676       0.999499022960663                       0                       0                       0                       4 
                 1.0501     0.00450112528132033        1.87504113004406        1.83781289428343      0.0160270115318833        7.10556005353952        2.48193172216448         1.8531349931539   2.27293472931933E-008                       0                       0                       0                       0   2.27293472931933E-008                       0                       0       0.993273854255676       0.999499022960663                       0                       0                       0                       4 
                 1.0501     0.00475118779694924        1.87496488260739        1.83776147838744      0.0168445671855653        7.10516141341087        2.48177488698823        1.85309325947209   2.27293472931933E-008                       0                       0                       0                       0   2.27293472931933E-008                       0                       0       0.993273854255676       0.999499022960663                       0                       0                       0                       4 
                 1.0501     0.00500125031257814        1.87488842961397        1.83770965596906      0.0176619041612935        7.10476202451305          2.481617871089        1.85305159382226   2.27293472931933E-008                       0                       0                       0                       0   2.27293472931933E-008                       0                       0       0.993273854255676       0.999499022960663                       0                       0                       0                       4 
                 1.0501     0.00525131282820705        1.87477660326356          1.837584945682      0.0184426734047889        7.10424434245284        2.48143509372324        1.85302561118757   2.27293472931933E-008                       0                       0                       0                       0   2.27293472931933E-008                       0                       0       0.993273854255676       0.999499022960663                       0                       0                       0                       4 
                 1.0501     0.00550137534383596        1.87466838782663        1.83746546215098      0.0192279787037634        7.10374671003094        2.48125897758601        1.85300103004899   2.27293472931933E-008                       0                       0                       0                       0   2.27293472931933E-008                       0                       0       0.993273854255676       0.999499022960663                       0                       0                       0                       4 
                 1.0501     0.00575143785946487        1.87454903478415        1.83731473853907      0.0199987219293623        7.10317515851149        2.48106337766388        1.85297294697106   5.40275213456454E-010                       0                       0                       0                       0   5.40275213456454E-010                       0                       0       0.997259795665741       0.998461544513702                       0                       0                       0                       4 
                 1.0501     0.00600150037509377        1.87440469173465        1.83708079318496      0.0207333334866928        7.10246699209155        2.48084078075684        1.85294938758779   5.40275213456454E-010                       0                       0                       0                       0   5.40275213456454E-010                       0                       0       0.997259795665741       0.998461544513702                       0                       0                       0                       4 
                 1.0501     0.00625156289072268        1.87426500910163        1.83685326115173      0.0214740606926064         7.1017845629266        2.48062685390388        1.85292768607324   5.40275213456454E-010                       0                       0                       0                       0   5.40275213456454E-010                       0                       0       0.997259795665741       0.998461544513702                       0                       0                       0                       4 
                 1.0501     0.00650162540635159        1.87410258801782        1.83658055702188      0.0221786606988901        7.10095733920846        2.48036847429403        1.85289524323154   5.40275213456454E-010                       0                       0                       0                       0   5.40275213456454E-010                       0                       0       0.997259795665741       0.998461544513702                       0                       0                       0                       4 
                 1.0501     0.00675168792198049        1.87390949429496        1.83623224286234       0.022827130710339        7.09991449658149        2.48004758244826        1.85284641665541   5.40275213456454E-010                       0                       0                       0                       0   5.40275213456454E-010                       0                       0       0.997259795665741       0.998461544513702                       0                       0                       0                       4 
                 1.0501      0.0070017504376094        1.87371935564064        1.83588802345477      0.0234794007693011        7.09888801494369        2.47973215928114        1.85279875679078   5.40275213456454E-010                       0                       0                       0                       0   5.40275213456454E-010                       0                       0       0.997259795665741       0.998461544513702                       0                       0                       0                       4 
                 1.0501     0.00725181295323831        1.87347793944427        1.83546786254431       0.024055229746433        7.09756107150378        2.47931675464504        1.85272709502306   5.40275213456454E-010                       0                       0                       0                       0   5.40275213456454E-010                       0                       0       0.997259795665741       0.998461544513702                       0                       0                       0                       4 
                 1.0501     0.00750187546886722        1.87320341528532        1.83499560420094      0.0245743876189069        7.09602894457717        2.47883356207704        1.85263749280821   5.40275213456454E-010                       0                       0                       0                       0   5.40275213456454E-010                       0                       0       0.997259795665741       0.998461544513702                       0                       0                       0                       4 
                 1.0501     0.00775193798449612        1.87292889112638        1.83452334585758      0.0250935454913808        7.09449681765056        2.47835036950905        1.85254789059337   5.40275213456454E-010                       0                       0                       0                       0   5.40275213456454E-010                       0                       0       0.997259795665741       0.998461544513702                       0                       0                       0                       4 
                 1.0501     0.00800200050012503        1.87256777187729        1.83394529161686      0.0254869258409364        7.09247854463264         2.4776981571809        1.85241751364622   5.40275213456454E-010                       0                       0                       0                       0   5.40275213456454E-010                       0                       0       0.997259795665741       0.998461544513702                       0                       0                       0                       4 
                 1.0501     0.00825206301575394         1.8721748907406        1.83333380931234      0.0258283160578576        7.09027967897194        2.47698083819031        1.85226985978372   5.40275213456454E-010                       0                       0                       0                       0   5.40275213456454E-010                       0                       0       0.997259795665741       0.998461544513702                       0                       0                       0                       4 
                 1.0501     0.00850212553138285        1.87178200960391        1.83272232700782      0.0261697062747789        7.08808081331123        2.47626351919972        1.85212220592122   5.40275213456454E-010                       0                       0                       0                       0   5.40275213456454E-010                       0                       0       0.997259795665741       0.998461544513702                       0                       0                       0                       4 
                 1.0501     0.00875218804701175        1.87125249120414        1.83193967847061      0.0263278677737458        7.08514233159153        2.47529219635637         1.8519194599411   3.78342551732302E-010                       0                       0                       0                       0   3.78342551732302E-010                       0                       0       0.756905198097229        0.99757969379425                       0                       0                       0                       4 
                 1.0501     0.00900225056264066        1.87071057969912        1.83113267479155      0.0264659611763847        7.08212515529837        2.47429676522678        1.85171091686905   3.78342551732302E-010                       0                       0                       0                       0   3.78342551732302E-010                       0                       0       0.756905198097229        0.99757969379425                       0                       0                       0                       4 
                 1.0501     0.00925231307826957         1.8701686681941         1.8303256711125      0.0266040545790235         7.0791079790052        2.47330133409719          1.851502373797   3.78342551732302E-010                       0                       0                       0                       0   3.78342551732302E-010                       0                       0       0.756905198097229        0.99757969379425                       0                       0                       0                       4 
                 1.0501     0.00950237559389847        1.86948169391776         1.8293346787584      0.0265462514727122        7.07530320053787        2.47203599967111        1.85123502794615   3.78342551732302E-010                       0                       0                       0                       0   3.78342551732302E-010                       0                       0       0.756905198097229        0.99757969379425                       0                       0                       0                       4 
                 1.0501     0.00975243810952738        1.86878482444459        1.82833156732846      0.0264744766661837        7.07144483567181         2.4707521038469          1.850963550169   3.78342551732302E-010                       0                       0                       0                       0   3.78342551732302E-010                       0                       0       0.756905198097229        0.99757969379425                       0                       0                       0                       4 
                 1.0501      0.0100025006251563        1.86808701380247        1.82732736322686      0.0264014253422368        7.06758141562398        2.46946644004381        1.85069167129911   3.78342551732302E-010                       0                       0                       0                       0   3.78342551732302E-010                       0                       0       0.756905198097229        0.99757969379425                       0                       0                       0                       4 
                 1.0501      0.0102525631407852        1.86729977760713        1.82621909251555       0.026207365517902        7.06323692291962        2.46801263475375        1.85038164053712   3.78342551732302E-010                       0                       0                       0                       0   3.78342551732302E-010                       0                       0       0.756905198097229        0.99757969379425                       0                       0                       0                       4 
                 1.0501      0.0105026256564141        1.86651493449867        1.82511344280415      0.0260167307482949        7.05890480263723        2.46656322492939        1.85007260282478   3.78342551732302E-010                       0                       0                       0                       0   3.78342551732302E-010                       0                       0       0.756905198097229        0.99757969379425                       0                       0                       0                       4 
                 1.0501       0.010752688172043         1.8657291426927        1.82400977326982      0.0258245189120604        7.05456916932447        2.46511144346393        1.84976259728304   3.78342551732302E-010                       0                       0                       0                       0   3.78342551732302E-010                       0                       0       0.756905198097229        0.99757969379425                       0                       0                       0                       4 
                 1.0501      0.0110027506876719        1.86492699012727        1.82290060307884      0.0256103667383403         7.0501514073266        2.46362589888244        1.84944279206147   3.78342551732302E-010                       0                       0                       0                       0   3.78342551732302E-010                       0                       0       0.756905198097229        0.99757969379425                       0                       0                       0                       4 
                 1.0501      0.0112528132033008        1.86412119567357        1.82178606264583      0.0253918803382074        7.04571311084002         2.4621335849154        1.84912152596945   3.78342551732302E-010                       0                       0                       0                       0   3.78342551732302E-010                       0                       0       0.756905198097229        0.99757969379425                       0                       0                       0                       4 
                 1.0501      0.0115028757189297        1.86335726628249        1.82072331270435      0.0252321710406123        7.04150281378885        2.46071977417321        1.84881760292278   1.04352457230839E-010                       0                       0                       0                       0   1.04352457230839E-010                       0                       0       0.998323857784271         0.9985710978508                       0                       0                       0                       4 
                 1.0501      0.0117529382345586        1.86260705154924        1.81969514074075      0.0250880593934216        7.03738916850537        2.45933371580634        1.84852024997069   1.04352457230839E-010                       0                       0                       0                       0   1.04352457230839E-010                       0                       0       0.998323857784271         0.9985710978508                       0                       0                       0                       4 
                 1.0501      0.0120030007501875        1.86185208973748        1.81866056344315      0.0249378756206266        7.03324952383801        2.45793889360221        1.84822101966719   1.04352457230839E-010                       0                       0                       0                       0   1.04352457230839E-010                       0                       0       0.998323857784271         0.9985710978508                       0                       0                       0                       4 
                 1.0501      0.0122530632658165        1.86116944977099        1.81772190500465      0.0248827455272836        7.02950717659724        2.45667874949999        1.84795103184662   1.04352457230839E-010                       0                       0                       0                       0   1.04352457230839E-010                       0                       0       0.998323857784271         0.9985710978508                       0                       0                       0                       4 
                 1.0501      0.0125031257814454        1.86054536388635        1.81686022911457      0.0249054949633224        7.02608701567585        2.45552806767496        1.84770496989825   1.04352457230839E-010                       0                       0                       0                       0   1.04352457230839E-010                       0                       0       0.998323857784271         0.9985710978508                       0                       0                       0                       4 
                 1.0501      0.0127531882970743         1.8599212780017        1.81599855322449      0.0249282443993613        7.02266685475446        2.45437738584994        1.84745890794988   1.04352457230839E-010                       0                       0                       0                       0   1.04352457230839E-010                       0                       0       0.998323857784271         0.9985710978508                       0                       0                       0                       4 
                 1.0501      0.0130032508127032        1.85937206318162        1.81524182102232      0.0250453558490964        7.01965961117187        2.45336463255037        1.84724209136315   1.04352457230839E-010                       0                       0                       0                       0   1.04352457230839E-010                       0                       0       0.998323857784271         0.9985710978508                       0                       0                       0                       4 
                 1.0501      0.0132533133283321        1.85885748654944        1.81453489372527      0.0252055083053611        7.01684442209639        2.45241560800731         1.8470386812654   1.04352457230839E-010                       0                       0                       0                       0   1.04352457230839E-010                       0                       0       0.998323857784271         0.9985710978508                       0                       0                       0                       4 
                 1.0501       0.013503375843961        1.85834290991726        1.81382796642823      0.0253656607616258        7.01402923302092        2.45146658346426        1.84683527116765   1.04352457230839E-010                       0                       0                       0                       0   1.04352457230839E-010                       0                       0       0.998323857784271         0.9985710978508                       0                       0                       0                       4 