VARIABLES = "x"
 "y"
 "rho"
 "rhoU"
 "rhoV"
 "rhoE"
 "P"
 "T"
 "ABV"
 "error"
 "error_hMLP"
 "error_BD"
 "ABV_P"
 "ABV_I"
 "ABV_I_BD"
 "ABV_D"
 "Ducros"
 "Sk"
 "trouble_vertex"
 "trouble_face"
 "hMLP_penalty"
 "BD_penalty"
ZONE
DT=(DOUBLE,DOUBLE,DOUBLE,DOUBLE,DOUBLE,DOUBLE,DOUBLE,DOUBLE,DOUBLE,DOUBLE,DOUBLE,DOUBLE,DOUBLE,DOUBLE,DOUBLE,DOUBLE,DOUBLE,DOUBLE,DOUBLE,DOUBLE,DOUBLE,DOUBLE)
                 0.5201                       0        1.94537061899912        1.72286007591908   -0.000527886020911919        7.34998848839889        2.63483528385038        1.89617825138772   1.80074977151889E-008                       0                       0                       0                       0   1.69614118306072E-008   1.04608621764868E-009                       0      0.0952958539128304       0.995795428752899                       1                       0                       0                       3 
                 0.5201    0.000250062515628907        1.94536484528223        1.72285331747174    -0.00069945920898305        7.34992199403276        2.63481012881001        1.89616576694999   1.80074977151889E-008                       0                       0                       0                       0   1.69614118306072E-008   1.04608621764868E-009                       0      0.0952958539128304       0.995795428752899                       1                       0                       0                       3 
                 0.5201    0.000500125031257815        1.94535633161074        1.72282654233264   -0.000832478496481214        7.34982333560436        2.63477879277546        1.89615149403014   1.80074977151889E-008                       0                       0                       0                       0   1.69614118306072E-008   1.04608621764868E-009                       0      0.0952958539128304       0.995795428752899                       1                       0                       0                       3 
                 0.5201    0.000750187546886722        1.94534781793926        1.72279976719353   -0.000965497783979379        7.34972467717597        2.63474745674092         1.8961372211103   1.80074977151889E-008                       0                       0                       0                       0   1.69614118306072E-008   1.04608621764868E-009                       0      0.0952958539128304       0.995795428752899                       1                       0                       0                       3 
                 0.5201     0.00100025006251563        1.94533930426777        1.72277299205443    -0.00109851707147754        7.34962601874758        2.63471612070638        1.89612294819045   1.80074977151889E-008                       0                       0                       0                       0   1.69614118306072E-008   1.04608621764868E-009                       0      0.0952958539128304       0.995795428752899                       1                       0                       0                       3 
                 0.5201     0.00125031257814454        1.94533079059629        1.72274621691532    -0.00123153635897571        7.34952736031918        2.63468478467183        1.89610867527061   1.80074977151889E-008                       0                       0                       0                       0   1.69614118306072E-008   1.04608621764868E-009                       0      0.0952958539128304       0.995795428752899                       1                       0                       0                       3 
                 0.5201     0.00150037509377344         1.9453222769248        1.72271944177622    -0.00136455564647387        7.34942870189079        2.63465344863729        1.89609440235077   1.80074977151889E-008                       0                       0                       0                       0   1.69614118306072E-008   1.04608621764868E-009                       0      0.0952958539128304       0.995795428752899                       1                       0                       0                       3 
                 0.5201     0.00175043760940235        1.94532648376343        1.72278638378201    -0.00154941000974891        7.34943264638991        2.63463187917433        1.89607476081243   1.80074977151889E-008                       0                       0                       0                       0   1.69614118306072E-008   1.04608621764868E-009                       0      0.0952958539128304       0.995795428752899                       1                       0                       0                       3 
                 0.5201     0.00200050012503126        1.94534075666465         1.7229729349216    -0.00175685741937824        7.34956614607626           2.63462133525        1.89605327554673   1.80074977151889E-008                       0                       0                       0                       0   1.69614118306072E-008   1.04608621764868E-009                       0      0.0952958539128304       0.995795428752899                       1                       0                       0                       3 
                 0.5201     0.00225056264066016         1.9453539743185        1.72315486993495    -0.00195872435973778        7.34969449503966         2.6346102102423         1.8960324027429   1.80074977151889E-008                       0                       0                       0                       0   1.69614118306072E-008   1.04608621764868E-009                       0      0.0952958539128304       0.995795428752899                       1                       0                       0                       3 
                 0.5201     0.00250062515628907        1.94536719197234        1.72333680494829    -0.00216059130009733        7.34982284400307         2.6345990852346        1.89601152993907   1.80074977151889E-008                       0                       0                       0                       0   1.69614118306072E-008   1.04608621764868E-009                       0      0.0952958539128304       0.995795428752899                       1                       0                       0                       3 
                 0.5201     0.00275068767191798        1.94538040962618        1.72351873996164    -0.00236245824045687        7.34995119296647         2.6345879602269        1.89599065713524   1.80074977151889E-008                       0                       0                       0                       0   1.69614118306072E-008   1.04608621764868E-009                       0      0.0952958539128304       0.995795428752899                       1                       0                       0                       3 
                 0.5201     0.00300075018754689        1.94539362728002        1.72370067497498    -0.00256432518081642        7.35007954192988        2.63457683521921        1.89596978433141   1.80074977151889E-008                       0                       0                       0                       0   1.69614118306072E-008   1.04608621764868E-009                       0      0.0952958539128304       0.995795428752899                       1                       0                       0                       3 
                 0.5201     0.00325081270317579        1.94540684493386        1.72388260998833    -0.00276619212117597        7.35020789089329        2.63456571021151        1.89594891152758   1.80074977151889E-008                       0                       0                       0                       0   1.69614118306072E-008   1.04608621764868E-009                       0      0.0952958539128304       0.995795428752899                       1                       0                       0                       3 
                 0.5201      0.0035008752188047        1.94545378989404        1.72417264661996    -0.00304949263197991        7.35046311675836        2.63457206678595        1.89590772826053   1.80074977151889E-008                       0                       0                       0                       0   1.69614118306072E-008   1.04608621764868E-009                       0      0.0952958539128304       0.995795428752899                       1                       0                       0                       3 
                 0.5201     0.00375093773443361        1.94550204596311        1.72446094890955    -0.00332790330354733        7.35073419495807        2.63458562427311        1.89587045411377   1.80074977151889E-008                       0                       0                       0                       0   1.69614118306072E-008   1.04608621764868E-009                       0      0.0952958539128304       0.995795428752899                       1                       0                       0                       3 
                 0.5201     0.00400100025006252        1.94555030203218        1.72474925119915    -0.00360631397511476        7.35100527315779        2.63459918176027        1.89583317996702   1.80074977151889E-008                       0                       0                       0                       0   1.69614118306072E-008   1.04608621764868E-009                       0      0.0952958539128304       0.995795428752899                       1                       0                       0                       3 
                 0.5201     0.00425106276569142        1.94559855810125        1.72503755348875    -0.00388472464668218         7.3512763513575        2.63461273924743        1.89579590582027   1.80074977151889E-008                       0                       0                       0                       0   1.69614118306072E-008   1.04608621764868E-009                       0      0.0952958539128304       0.995795428752899                       1                       0                       0                       3 
                 0.5201     0.00450112528132033        1.94564681417032        1.72532585577835    -0.00416313531824961        7.35154742955721        2.63462629673459        1.89575863167351   1.80074977151889E-008                       0                       0                       0                       0   1.69614118306072E-008   1.04608621764868E-009                       0      0.0952958539128304       0.995795428752899                       1                       0                       0                       3 
                 0.5201     0.00475118779694924        1.94569507023939        1.72561415806795    -0.00444154598981703        7.35181850775692        2.63463985422175        1.89572135752676   1.80074977151889E-008                       0                       0                       0                       0   1.69614118306072E-008   1.04608621764868E-009                       0      0.0952958539128304       0.995795428752899                       1                       0                       0                       3 
                 0.5201     0.00500125031257814        1.94574374308623        1.72590304643979    -0.00472070228180199        7.35209026174452        2.63465353638449        1.89568376721919   1.80074977151889E-008                       0                       0                       0                       0   1.69614118306072E-008   1.04608621764868E-009                       0      0.0952958539128304       0.995795428752899                       1                       0                       0                       3 
                 0.5201     0.00525131282820705        1.94585415901449        1.72624012035317    -0.00510897514618154        7.35244995354694        2.63469458060296        1.89560575336939   1.80074977151889E-008                       0                       0                       0                       0   1.69614118306072E-008   1.04608621764868E-009                       0      0.0952958539128304       0.995795428752899                       1                       0                       0                       3 
                 0.5201     0.00550137534383596        1.94595074266911         1.7265325184246    -0.00547162545996111        7.35277926803747        2.63473729204134        1.89554241953216   1.80074977151889E-008                       0                       0                       0                       0   1.69614118306072E-008   1.04608621764868E-009                       0      0.0952958539128304       0.995795428752899                       1                       0                       0                       3 
                 0.5201     0.00575143785946487        1.94604732632373        1.72682491649604    -0.00583427577374068        7.35310858252801        2.63478000347971        1.89547908569494   1.80074977151889E-008                       0                       0                       0                       0   1.69614118306072E-008   1.04608621764868E-009                       0      0.0952958539128304       0.995795428752899                       1                       0                       0                       3 
                 0.5201     0.00600150037509377        1.94614390997836        1.72711731456748    -0.00619692608752025        7.35343789701855        2.63482271491809        1.89541575185771   1.80074977151889E-008                       0                       0                       0                       0   1.69614118306072E-008   1.04608621764868E-009                       0      0.0952958539128304       0.995795428752899                       1                       0                       0                       3 
                 0.5201     0.00625156289072268        1.94624049363298        1.72740971263892    -0.00655957640129982        7.35376721150909        2.63486542635647        1.89535241802048   1.80074977151889E-008                       0                       0                       0                       0   1.69614118306072E-008   1.04608621764868E-009                       0      0.0952958539128304       0.995795428752899                       1                       0                       0                       3 
                 0.5201     0.00650162540635159         1.9463370772876        1.72770211071036    -0.00692222671507939        7.35409652599963        2.63490813779484        1.89528908418326   1.80074977151889E-008                       0                       0                       0                       0   1.69614118306072E-008   1.04608621764868E-009                       0      0.0952958539128304       0.995795428752899                       1                       0                       0                       3 
                 0.5201     0.00675168792198049        1.94670685066672        1.72832215809581    -0.00759907839941556        7.35520244484242        2.63518748031113        1.89512993645737   6.53410907602847E-008                       0                       0                       0                       0   6.39515960187964E-008   1.38949485251061E-009                       0     0.00179002934601158       0.996171116828918                       0                       0                       0                       4 
                 0.5201      0.0070017504376094        1.94677861771151        1.72888927489069    -0.00800658760401199        7.35562524303248        2.63516559570749        1.89504436298448   6.53410907602847E-008                       0                       0                       0                       0   6.39515960187964E-008   1.38949485251061E-009                       0     0.00179002934601158       0.996171116828918                       0                       0                       0                       4 
                 0.5201     0.00725181295323831        1.94684570757975        1.72944625851821    -0.00840452560558632        7.35603482927152        2.63514134247867        1.89496164087288   6.53410907602847E-008                       0                       0                       0                       0   6.39515960187964E-008   1.38949485251061E-009                       0     0.00179002934601158       0.996171116828918                       0                       0                       0                       4 
                 0.5201     0.00750187546886722        1.94691279744799        1.73000324214572    -0.00880246360716065        7.35644441551057        2.63511708924984        1.89487891876128   6.53410907602847E-008                       0                       0                       0                       0   6.39515960187964E-008   1.38949485251061E-009                       0     0.00179002934601158       0.996171116828918                       0                       0                       0                       4 
                 0.5201     0.00775193798449612        1.94697988731623        1.73056022577324    -0.00920040160873497        7.35685400174962        2.63509283602101        1.89479619664968   6.53410907602847E-008                       0                       0                       0                       0   6.39515960187964E-008   1.38949485251061E-009                       0     0.00179002934601158       0.996171116828918                       0                       0                       0                       4 
                 0.5201     0.00800200050012503        1.94704697718447        1.73111720940076     -0.0095983396103093        7.35726358798866        2.63506858279218        1.89471347453808   6.53410907602847E-008                       0                       0                       0                       0   6.39515960187964E-008   1.38949485251061E-009                       0     0.00179002934601158       0.996171116828918                       0                       0                       0                       4 
                 0.5201     0.00825206301575394        1.94711406705271        1.73167419302828    -0.00999627761188363        7.35767317422771        2.63504432956336        1.89463075242649   6.53410907602847E-008                       0                       0                       0                       0   6.39515960187964E-008   1.38949485251061E-009                       0     0.00179002934601158       0.996171116828918                       0                       0                       0                       4 
                 0.5201     0.00850212553138285        1.94721999239524         1.7323150905636     -0.0105316502437858        7.35822233094108        2.63505111560029        1.89453260193327   6.53410907602847E-008                       0                       0                       0                       0   6.39515960187964E-008   1.38949485251061E-009                       0     0.00179002934601158       0.996171116828918                       0                       0                       0                       4 
                 0.5201     0.00875218804701175        1.94730806242878        1.73292854020014      -0.011060471619539        7.35874610081561         2.6350548716334        1.89444962937324   6.53410907602847E-008                       0                       0                       0                       0   6.39515960187964E-008   1.38949485251061E-009                       0     0.00179002934601158       0.996171116828918                       0                       0                       0                       4 
                 0.5201     0.00900225056264066        1.94739613246232        1.73354198983668     -0.0115892929952921        7.35926987069013        2.63505862766651        1.89436665681321   6.53410907602847E-008                       0                       0                       0                       0   6.39515960187964E-008   1.38949485251061E-009                       0     0.00179002934601158       0.996171116828918                       0                       0                       0                       4 
                 0.5201     0.00925231307826957        1.94748420249586        1.73415543947322     -0.0121181143710452        7.35979364056466        2.63506238369962        1.89428368425318   6.53410907602847E-008                       0                       0                       0                       0   6.39515960187964E-008   1.38949485251061E-009                       0     0.00179002934601158       0.996171116828918                       0                       0                       0                       4 
                 0.5201     0.00950237559389847         1.9475722725294        1.73476888910976     -0.0126469357467983        7.36031741043918        2.63506613973274        1.89420071169315   6.53410907602847E-008                       0                       0                       0                       0   6.39515960187964E-008   1.38949485251061E-009                       0     0.00179002934601158       0.996171116828918                       0                       0                       0                       4 
                 0.5201     0.00975243810952738        1.94766034256294         1.7353823387463     -0.0131757571225515         7.3608411803137        2.63506989576585        1.89411773913312   6.53410907602847E-008                       0                       0                       0                       0   6.39515960187964E-008   1.38949485251061E-009                       0     0.00179002934601158       0.996171116828918                       0                       0                       0                       4 
                 0.5201      0.0100025006251563        1.94774950838182        1.73599624111105      -0.013706290877333        7.36136627457289        2.63507417196629         1.8940340766542   6.53410907602847E-008                       0                       0                       0                       0   6.39515960187964E-008   1.38949485251061E-009                       0     0.00179002934601158       0.996171116828918                       0                       0                       0                       4 
                 0.5201      0.0102525631407852        1.94791946643632        1.73661829920609     -0.0143539476288831        7.36196625859322        2.63511684711414        1.89389957566395   6.53410907602847E-008                       0                       0                       0                       0   6.39515960187964E-008   1.38949485251061E-009                       0     0.00179002934601158       0.996171116828918                       0                       0                       0                       4 
                 0.5201      0.0105026256564141        1.94807172877924        1.73721692112027     -0.0149681143133763        7.36253030713622         2.6351511521974        1.89377623475982   6.53410907602847E-008                       0                       0                       0                       0   6.39515960187964E-008   1.38949485251061E-009                       0     0.00179002934601158       0.996171116828918                       0                       0                       0                       4 
                 0.5201       0.010752688172043        1.94822399112217        1.73781554303445     -0.0155822809978694        7.36309435567921        2.63518545728065        1.89365289385569   6.53410907602847E-008                       0                       0                       0                       0   6.39515960187964E-008   1.38949485251061E-009                       0     0.00179002934601158       0.996171116828918                       0                       0                       0                       4 
                 0.5201      0.0110027506876719         1.9483762534651        1.73841416494863     -0.0161964476823626        7.36365840422221         2.6352197623639        1.89352955295157   6.53410907602847E-008                       0                       0                       0                       0   6.39515960187964E-008   1.38949485251061E-009                       0     0.00179002934601158       0.996171116828918                       0                       0                       0                       4 
                 0.5201      0.0112528132033008        1.94852851580802         1.7390127868628     -0.0168106143668557         7.3642224527652        2.63525406744716        1.89340621204744   6.53410907602847E-008                       0                       0                       0                       0   6.39515960187964E-008   1.38949485251061E-009                       0     0.00179002934601158       0.996171116828918                       0                       0                       0                       4 
                 0.5201      0.0115028757189297        1.94868077815095        1.73961140877698     -0.0174247810513488         7.3647865013082        2.63528837253041        1.89328287114332   6.53410907602847E-008                       0                       0                       0                       0   6.39515960187964E-008   1.38949485251061E-009                       0     0.00179002934601158       0.996171116828918                       0                       0                       0                       4 
                 0.5201      0.0117529382345586         1.9488801161449        1.74018229375954     -0.0180695954640639        7.36534862461812        2.63533867185766        1.89312543757018   6.53410907602847E-008                       0                       0                       0                       0   6.39515960187964E-008   1.38949485251061E-009                       0     0.00179002934601158       0.996171116828918                       0                       0                       0                       4 
                 0.5201      0.0120030007501875        1.94914137998375        1.74069514371252     -0.0187262655062356        7.36588045434967        2.63540716725744        1.89292100805611   6.53410907602847E-008                       0                       0                       0                       0   6.39515960187964E-008   1.38949485251061E-009                       0     0.00179002934601158       0.996171116828918                       0                       0                       0                       4 
                 0.5201      0.0122530632658165        1.94940104692779        1.74120768097305     -0.0193802402506691        7.36641073438527        2.63547495467429        1.89271761003382   6.53410907602847E-008                       0                       0                       0                       0   6.39515960187964E-008   1.38949485251061E-009                       0     0.00179002934601158       0.996171116828918                       0                       0                       0                       4 
                 0.5201      0.0125031257814454        1.94966071387182        1.74172021823358     -0.0200342149951026        7.36694101442087        2.63554274209115        1.89251421201153   6.53410907602847E-008                       0                       0                       0                       0   6.39515960187964E-008   1.38949485251061E-009                       0     0.00179002934601158       0.996171116828918                       0                       0                       0                       4 
                 0.5201      0.0127531882970743        1.94992038081586        1.74223275549411     -0.0206881897395361        7.36747129445647          2.635610529508        1.89231081398924   6.53410907602847E-008                       0                       0                       0                       0   6.39515960187964E-008   1.38949485251061E-009                       0     0.00179002934601158       0.996171116828918                       0                       0                       0                       4 
                 0.5201      0.0130032508127032         1.9501800477599        1.74274529275464     -0.0213421644839696        7.36800157449207        2.63567831692486        1.89210741596695   6.53410907602847E-008                       0                       0                       0                       0   6.39515960187964E-008   1.38949485251061E-009                       0     0.00179002934601158       0.996171116828918                       0                       0                       0                       4 
                 0.5201      0.0132533133283321        1.95043971470394        1.74325783001517     -0.0219961392284031        7.36853185452767        2.63574610434171        1.89190401794466   6.53410907602847E-008                       0                       0                       0                       0   6.39515960187964E-008   1.38949485251061E-009                       0     0.00179002934601158       0.996171116828918                       0                       0                       0                       4 
                 0.5201       0.013503375843961        1.95044169216393        1.74359661385398     -0.0224470681781491        7.36913640719781        2.63586453630738        1.89198720163894   1.18692156547695E-007                       0                       0                       0                       0    1.1013529643833E-007   8.55686543843603E-009                       0      0.0246885996311903       0.995577096939087                       0                       0                       0                       4 