VARIABLES = "x"
 "y"
 "rho"
 "rhoU"
 "rhoV"
 "rhoE"
 "P"
 "T"
 "ABV"
 "error"
 "error_hMLP"
 "error_BD"
 "ABV_P"
 "ABV_I"
 "ABV_I_BD"
 "ABV_D"
 "Ducros"
 "Sk"
 "trouble_vertex"
 "trouble_face"
 "hMLP_penalty"
 "BD_penalty"
ZONE
DT=(DOUBLE,DOUBLE,DOUBLE,DOUBLE,DOUBLE,DOUBLE,DOUBLE,DOUBLE,DOUBLE,DOUBLE,DOUBLE,DOUBLE,DOUBLE,DOUBLE,DOUBLE,DOUBLE,DOUBLE,DOUBLE,DOUBLE,DOUBLE,DOUBLE,DOUBLE)
                 1.0501                       0        1.87008640480024        1.82900628176496   9.35957172689912E-006        7.07905217293418        2.47385521554793        1.85199855732006   1.93206378927746E-017                       0                       0                       0                       0   1.93206378927746E-017                       0                       0       0.998547673225403       0.998228907585144                       0                       0                       0                       3 
                 1.0501    0.000250062515628907        1.87005913948908        1.82897427635762    0.000732954286878016        7.07893023337842         2.4738133624296        1.85199423604797   1.93206378927746E-017                       0                       0                       0                       0   1.93206378927746E-017                       0                       0       0.998547673225403       0.998228907585144                       0                       0                       0                       3 
                 1.0501    0.000500125031257815        1.87003231069238        1.82894421021946     0.00146669740510599        7.07881218667294        2.47377236802825        1.85199012229914   1.93206378927746E-017                       0                       0                       0                       0   1.93206378927746E-017                       0                       0       0.998547673225403       0.998228907585144                       0                       0                       0                       3 
                 1.0501    0.000750187546886722        1.87000548189568        1.82891414408129     0.00220044052333397        7.07869413996747        2.47373137362689        1.85198600855031   1.93206378927746E-017                       0                       0                       0                       0   1.93206378927746E-017                       0                       0       0.998547673225403       0.998228907585144                       0                       0                       0                       3 
                 1.0501     0.00100025006251563        1.86997865309898        1.82888407794312     0.00293418364156195        7.07857609326199        2.47369037922554        1.85198189480148   1.93206378927746E-017                       0                       0                       0                       0   1.93206378927746E-017                       0                       0       0.998547673225403       0.998228907585144                       0                       0                       0                       3 
                 1.0501     0.00125031257814454        1.86995182430228        1.82885401180495     0.00366792675978992        7.07845804655652        2.47364938482418        1.85197778105266   1.93206378927746E-017                       0                       0                       0                       0   1.93206378927746E-017                       0                       0       0.998547673225403       0.998228907585144                       0                       0                       0                       3 
                 1.0501     0.00150037509377344        1.86992499550558        1.82882394566679      0.0044016698780179        7.07833999985105        2.47360839042283        1.85197366730383   1.93206378927746E-017                       0                       0                       0                       0   1.93206378927746E-017                       0                       0       0.998547673225403       0.998228907585144                       0                       0                       0                       3 
                 1.0501     0.00175043760940235        1.86988447553338        1.82878465820735     0.00511802987177263        7.07813790071231        2.47353454918378         1.8519585227217   1.93206378927746E-017                       0                       0                       0                       0   1.93206378927746E-017                       0                       0       0.998547673225403       0.998228907585144                       0                       0                       0                       3 
                 1.0501     0.00200050012503126        1.86982395112481        1.82873853677661     0.00582550642449082         7.0778102201357        2.47340884835122        1.85192434049877   1.93206378927746E-017                       0                       0                       0                       0   1.93206378927746E-017                       0                       0       0.998547673225403       0.998228907585144                       0                       0                       0                       3 
                 1.0501     0.00225056264066016        1.86976392616367        1.82869321399606     0.00653476695641375          7.077485412837         2.4732840765607        1.85189035735629   1.93206378927746E-017                       0                       0                       0                       0   1.93206378927746E-017                       0                       0       0.998547673225403       0.998228907585144                       0                       0                       0                       3 
                 1.0501     0.00250062515628907        1.86970390120252         1.8286478912155     0.00724402748833669         7.0771606055383        2.47315930477019         1.8518563742138   1.93206378927746E-017                       0                       0                       0                       0   1.93206378927746E-017                       0                       0       0.998547673225403       0.998228907585144                       0                       0                       0                       3 
                 1.0501     0.00275068767191798        1.86964387624137        1.82860256843494     0.00795328802025963        7.07683579823961        2.47303453297968        1.85182239107132   1.93206378927746E-017                       0                       0                       0                       0   1.93206378927746E-017                       0                       0       0.998547673225403       0.998228907585144                       0                       0                       0                       3 
                 1.0501     0.00300075018754689        1.86958385128023        1.82855724565439     0.00866254855218257        7.07651099094091        2.47290976118916        1.85178840792883   1.93206378927746E-017                       0                       0                       0                       0   1.93206378927746E-017                       0                       0       0.998547673225403       0.998228907585144                       0                       0                       0                       3 
                 1.0501     0.00325081270317579        1.86952382631908        1.82851192287383     0.00937180908410551        7.07618618364221        2.47278498939865        1.85175442478635   1.93206378927746E-017                       0                       0                       0                       0   1.93206378927746E-017                       0                       0       0.998547673225403       0.998228907585144                       0                       0                       0                       3 
                 1.0501      0.0035008752188047        1.86942853468399        1.82841892407394      0.0100363278921143        7.07563439545246        2.47258100409082        1.85169603945512   1.93206378927746E-017                       0                       0                       0                       0   1.93206378927746E-017                       0                       0       0.998547673225403       0.998228907585144                       0                       0                       0                       3 
                 1.0501     0.00375093773443361        1.86932438528066        1.82831420232286      0.0106963953324343          7.075017762303        2.47235374626517          1.851628967454   1.93206378927746E-017                       0                       0                       0                       0   1.93206378927746E-017                       0                       0       0.998547673225403       0.998228907585144                       0                       0                       0                       3 
                 1.0501     0.00400100025006252        1.86922023587732        1.82820948057179      0.0113564627727544        7.07440112915353        2.47212648843952        1.85156189545289   1.93206378927746E-017                       0                       0                       0                       0   1.93206378927746E-017                       0                       0       0.998547673225403       0.998228907585144                       0                       0                       0                       3 
                 1.0501     0.00425106276569142        1.86911608647399        1.82810475882071      0.0120165302130744        7.07378449600407        2.47189923061387        1.85149482345177   1.93206378927746E-017                       0                       0                       0                       0   1.93206378927746E-017                       0                       0       0.998547673225403       0.998228907585144                       0                       0                       0                       3 
                 1.0501     0.00450112528132033        1.86901193707066        1.82800003706964      0.0126765976533944        7.07316786285461        2.47167197278822        1.85142775145066   1.93206378927746E-017                       0                       0                       0                       0   1.93206378927746E-017                       0                       0       0.998547673225403       0.998228907585144                       0                       0                       0                       3 
                 1.0501     0.00475118779694924        1.86890778766732        1.82789531531856      0.0133366650937144        7.07255122970514        2.47144471496257        1.85136067944954   1.93206378927746E-017                       0                       0                       0                       0   1.93206378927746E-017                       0                       0       0.998547673225403       0.998228907585144                       0                       0                       0                       3 
                 1.0501     0.00500125031257814        1.86880325869222          1.827789940407      0.0139962055119234        7.07193214633217        2.47121665899874        1.85129338537569   1.93206378927746E-017                       0                       0                       0                       0   1.93206378927746E-017                       0                       0       0.998547673225403       0.998228907585144                       0                       0                       0                       3 
                 1.0501     0.00525131282820705        1.86863581705213        1.82757098951181      0.0145699272310125        7.07089393368848          2.470853049352        1.85118682559068   1.93206378927746E-017                       0                       0                       0                       0   1.93206378927746E-017                       0                       0       0.998547673225403       0.998228907585144                       0                       0                       0                       3 
                 1.0501     0.00550137534383596        1.86847661499476        1.82736274442092      0.0151560908039302        7.06990040982793        2.47050463276088        1.85108348108024   1.93206378927746E-017                       0                       0                       0                       0   1.93206378927746E-017                       0                       0       0.998547673225403       0.998228907585144                       0                       0                       0                       3 
                 1.0501     0.00575143785946487        1.86831741293739        1.82715449933004      0.0157422543768479        7.06890688596738        2.47015621616976        1.85098013656979   1.93206378927746E-017                       0                       0                       0                       0   1.93206378927746E-017                       0                       0       0.998547673225403       0.998228907585144                       0                       0                       0                       3 
                 1.0501     0.00600150037509377        1.86815821088002        1.82694625423916      0.0163284179497656        7.06791336210683        2.46980779957864        1.85087679205934   1.93206378927746E-017                       0                       0                       0                       0   1.93206378927746E-017                       0                       0       0.998547673225403       0.998228907585144                       0                       0                       0                       3 
                 1.0501     0.00625156289072268        1.86799900882265        1.82673800914827      0.0169145815226833        7.06691983824628        2.46945938298752         1.8507734475489   1.93206378927746E-017                       0                       0                       0                       0   1.93206378927746E-017                       0                       0       0.998547673225403       0.998228907585144                       0                       0                       0                       3 
                 1.0501     0.00650162540635159        1.86783980676528        1.82652976405739       0.017500745095601        7.06592631438573         2.4691109663964        1.85067010303845   1.93206378927746E-017                       0                       0                       0                       0   1.93206378927746E-017                       0                       0       0.998547673225403       0.998228907585144                       0                       0                       0                       3 
                 1.0501     0.00675168792198049        1.86763789015537        1.82624580766854      0.0180123332975326        7.06468662572655        2.46868559766881        1.85055136794916   2.27887864134857E-009                       0                       0                       0                       0   2.27887864134857E-009                       0                       0       0.992635488510132       0.997886717319489                       0                       0                       0                       4 
                 1.0501      0.0070017504376094        1.86740317976392        1.82591769265365      0.0185015767704917        7.06327836006363        2.46820369211132        1.85042258316262   2.27887864134857E-009                       0                       0                       0                       0   2.27887864134857E-009                       0                       0       0.992635488510132       0.997886717319489                       0                       0                       0                       4 
                 1.0501     0.00725181295323831        1.86716984080869        1.82559141875965      0.0189931118370732        7.06187768244126        2.46772435101061        1.85029435941818   2.27887864134857E-009                       0                       0                       0                       0   2.27887864134857E-009                       0                       0       0.992635488510132       0.997886717319489                       0                       0                       0                       4 
                 1.0501     0.00750187546886722        1.86693650185347        1.82526514486564      0.0194846469036547        7.06047700481889        2.46724500990989        1.85016613567374   2.27887864134857E-009                       0                       0                       0                       0   2.27887864134857E-009                       0                       0       0.992635488510132       0.997886717319489                       0                       0                       0                       4 
                 1.0501     0.00775193798449612        1.86670316289825        1.82493887097164      0.0199761819702362        7.05907632719652        2.46676566880917         1.8500379119293   2.27887864134857E-009                       0                       0                       0                       0   2.27887864134857E-009                       0                       0       0.992635488510132       0.997886717319489                       0                       0                       0                       4 
                 1.0501     0.00800200050012503        1.86646982394302        1.82461259707763      0.0204677170368177        7.05767564957415        2.46628632770845        1.84990968818486   2.27887864134857E-009                       0                       0                       0                       0   2.27887864134857E-009                       0                       0       0.992635488510132       0.997886717319489                       0                       0                       0                       4 
                 1.0501     0.00825206301575394         1.8662364849878        1.82428632318363      0.0209592521033992        7.05627497195178        2.46580698660773        1.84978146444041   2.27887864134857E-009                       0                       0                       0                       0   2.27887864134857E-009                       0                       0       0.992635488510132       0.997886717319489                       0                       0                       0                       4 
                 1.0501     0.00850212553138285        1.86593190434378        1.82387049735575      0.0213615396212846        7.05452753503163        2.46521058166432        1.84963585816449   2.27887864134857E-009                       0                       0                       0                       0   2.27887864134857E-009                       0                       0       0.992635488510132       0.997886717319489                       0                       0                       0                       4 
                 1.0501     0.00875218804701175        1.86560244658224        1.82342413753507      0.0217369741345622        7.05266504341252        2.46457534703573         1.8494856883835   2.27887864134857E-009                       0                       0                       0                       0   2.27887864134857E-009                       0                       0       0.992635488510132       0.997886717319489                       0                       0                       0                       4 
                 1.0501     0.00900225056264066        1.86527298882071         1.8229777777144      0.0221124086478398        7.05080255179341        2.46394011240715        1.84933551860251   2.27887864134857E-009                       0                       0                       0                       0   2.27887864134857E-009                       0                       0       0.992635488510132       0.997886717319489                       0                       0                       0                       4 
                 1.0501     0.00925231307826957        1.86494353105918        1.82253141789372      0.0224878431611173         7.0489400601743        2.46330487777856        1.84918534882152   2.27887864134857E-009                       0                       0                       0                       0   2.27887864134857E-009                       0                       0       0.992635488510132       0.997886717319489                       0                       0                       0                       4 
                 1.0501     0.00950237559389847        1.86461407329764        1.82208505807305      0.0228632776743949        7.04707756855519        2.46266964314997        1.84903517904053   2.27887864134857E-009                       0                       0                       0                       0   2.27887864134857E-009                       0                       0       0.992635488510132       0.997886717319489                       0                       0                       0                       4 
                 1.0501     0.00975243810952738        1.86428461553611        1.82163869825237      0.0232387121876725        7.04521507693608        2.46203440852138        1.84888500925954   2.27887864134857E-009                       0                       0                       0                       0   2.27887864134857E-009                       0                       0       0.992635488510132       0.997886717319489                       0                       0                       0                       4 
                 1.0501      0.0100025006251563        1.86395433119686        1.82119120401144      0.0236130918333714        7.04334856279523        2.46139785451724         1.8487346640034   2.27887864134857E-009                       0                       0                       0                       0   2.27887864134857E-009                       0                       0       0.992635488510132       0.997886717319489                       0                       0                       0                       4 
                 1.0501      0.0102525631407852        1.86354769924969        1.82063863390388      0.0238929613314029        7.04111370132516        2.46064073018657        1.84856907548428   2.27887864134857E-009                       0                       0                       0                       0   2.27887864134857E-009                       0                       0       0.992635488510132       0.997886717319489                       0                       0                       0                       4 
                 1.0501      0.0105026256564141        1.86314456980681        1.82009068263666      0.0241791706151342        7.03889792920122        2.45989002478809         1.8484048474997   2.27887864134857E-009                       0                       0                       0                       0   2.27887864134857E-009                       0                       0       0.992635488510132       0.997886717319489                       0                       0                       0                       4 
                 1.0501       0.010752688172043        1.86274144036393        1.81954273136943      0.0244653798988655        7.03668215707729        2.45913931938961        1.84824061951512   2.27887864134857E-009                       0                       0                       0                       0   2.27887864134857E-009                       0                       0       0.992635488510132       0.997886717319489                       0                       0                       0                       4 
                 1.0501      0.0110027506876719        1.86233831092106        1.81899478010221      0.0247515891825967        7.03446638495335        2.45838861399112        1.84807639153053   2.27887864134857E-009                       0                       0                       0                       0   2.27887864134857E-009                       0                       0       0.992635488510132       0.997886717319489                       0                       0                       0                       4 
                 1.0501      0.0112528132033008        1.86193518147818        1.81844682883498       0.025037798466328        7.03225061282942        2.45763790859264        1.84791216354595   2.27887864134857E-009                       0                       0                       0                       0   2.27887864134857E-009                       0                       0       0.992635488510132       0.997886717319489                       0                       0                       0                       4 
                 1.0501      0.0115028757189297         1.8615320520353        1.81789887756776      0.0253240077500593        7.03003484070548        2.45688720319415        1.84774793556137   2.27887864134857E-009                       0                       0                       0                       0   2.27887864134857E-009                       0                       0       0.992635488510132       0.997886717319489                       0                       0                       0                       4 
                 1.0501      0.0117529382345586        1.86111054648956        1.81732141223069      0.0255868742576835        7.02773105087461        2.45610940877902        1.84758138742411   2.27887864134857E-009                       0                       0                       0                       0   2.27887864134857E-009                       0                       0       0.992635488510132       0.997886717319489                       0                       0                       0                       4 
                 1.0501      0.0120030007501875        1.86065606270692        1.81669021135449       0.025810441147716        7.02526961909893        2.45528342934366        1.84741095827111   2.27887864134857E-009                       0                       0                       0                       0   2.27887864134857E-009                       0                       0       0.992635488510132       0.997886717319489                       0                       0                       0                       4 
                 1.0501      0.0122530632658165        1.86020169026951        1.81605914448671      0.0260343005960965         7.0228087391226        2.45445763909663        1.84724055966415   2.27887864134857E-009                       0                       0                       0                       0   2.27887864134857E-009                       0                       0       0.992635488510132       0.997886717319489                       0                       0                       0                       4 
                 1.0501      0.0125031257814454         1.8597473178321        1.81542807761892      0.0262581600444769        7.02034785914627        2.45363184884961        1.84707016105719   2.27887864134857E-009                       0                       0                       0                       0   2.27887864134857E-009                       0                       0       0.992635488510132       0.997886717319489                       0                       0                       0                       4 
                 1.0501      0.0127531882970743        1.85929294539468        1.81479701075113      0.0264820194928574        7.01788697916994        2.45280605860259        1.84689976245023   2.27887864134857E-009                       0                       0                       0                       0   2.27887864134857E-009                       0                       0       0.992635488510132       0.997886717319489                       0                       0                       0                       4 
                 1.0501      0.0130032508127032        1.85883857295727        1.81416594388335      0.0267058789412379        7.01542609919361        2.45198026835557        1.84672936384327   2.27887864134857E-009                       0                       0                       0                       0   2.27887864134857E-009                       0                       0       0.992635488510132       0.997886717319489                       0                       0                       0                       4 
                 1.0501      0.0132533133283321        1.85838420051986        1.81353487701556      0.0269297383896184        7.01296521921727        2.45115447810855        1.84655896523631   2.27887864134857E-009                       0                       0                       0                       0   2.27887864134857E-009                       0                       0       0.992635488510132       0.997886717319489                       0                       0                       0                       4 
                 1.0501       0.013503375843961        1.85794002568992        1.81290812084438      0.0271679805757095         7.0105630081775        2.45035218436371        1.84639581666201   6.26943474912878E-009                       0                       0                       0                       0   6.26943474912878E-009                       0                       0       0.988585293292999       0.998803853988647                       0                       0                       0                       4 