VARIABLES = "x"
 "y"
 "rho"
 "rhoU"
 "rhoV"
 "rhoE"
 "P"
 "T"
 "ABV"
 "error"
 "error_hMLP"
 "error_BD"
 "ABV_P"
 "ABV_I"
 "ABV_I_BD"
 "ABV_D"
 "Ducros"
 "Sk"
 "trouble_vertex"
 "trouble_face"
 "hMLP_penalty"
 "BD_penalty"
ZONE
DT=(DOUBLE,DOUBLE,DOUBLE,DOUBLE,DOUBLE,DOUBLE,DOUBLE,DOUBLE,DOUBLE,DOUBLE,DOUBLE,DOUBLE,DOUBLE,DOUBLE,DOUBLE,DOUBLE,DOUBLE,DOUBLE,DOUBLE,DOUBLE,DOUBLE,DOUBLE)
                 0.5201                       0        1.94077110010409        1.71934714279408  -6.66510910814666E-006        7.33583871995081        2.62969838303088        1.89696646181031   2.35090968914164E-008                       0                       0                       0                       0   2.35090968914164E-008                       0                       0       0.373656332492828       0.998560309410095                       0                       0                       0                       3 
                 0.5201    0.000250062515628907        1.94077631788406        1.71932657649729   -0.000328387506143858        7.33581712317956        2.62969781056554         1.8969609339224   2.35090968914164E-008                       0                       0                       0                       0   2.35090968914164E-008                       0                       0       0.373656332492828       0.998560309410095                       0                       0                       0                       3 
                 0.5201    0.000500125031257815        1.94078003814404        1.71930678280636   -0.000627868892021313        7.33579327535916        2.62969580734863        1.89695585433666   2.35090968914164E-008                       0                       0                       0                       0   2.35090968914164E-008                       0                       0       0.373656332492828       0.998560309410095                       0                       0                       0                       3 
                 0.5201    0.000750187546886722        1.94078375840402        1.71928698911543   -0.000927350277898769        7.33576942753876        2.62969380413172        1.89695077475091   2.35090968914164E-008                       0                       0                       0                       0   2.35090968914164E-008                       0                       0       0.373656332492828       0.998560309410095                       0                       0                       0                       3 
                 0.5201     0.00100025006251563          1.940787478664         1.7192671954245    -0.00122683166377622        7.33574557971836         2.6296918009148        1.89694569516517   2.35090968914164E-008                       0                       0                       0                       0   2.35090968914164E-008                       0                       0       0.373656332492828       0.998560309410095                       0                       0                       0                       3 
                 0.5201     0.00125031257814454        1.94079127351471        1.71924770197466    -0.00152641568178399        7.33572207390628        2.62968983949493        1.89694057288801   2.35090968914164E-008                       0                       0                       0                       0   2.35090968914164E-008                       0                       0       0.373656332492828       0.998560309410095                       0                       0                       0                       3 
                 0.5201     0.00150037509377344        1.94085037357392        1.71945547544793    -0.00186819098163584        7.33595643656368        2.62971903399313        1.89690389561689   2.35090968914164E-008                       0                       0                       0                       0   2.35090968914164E-008                       0                       0       0.373656332492828       0.998560309410095                       0                       0                       0                       3 
                 0.5201     0.00175043760940235        1.94090663058224        1.71965489092209    -0.00218357153617984        7.33618060607542        2.62974674516043        1.89686891086437   2.35090968914164E-008                       0                       0                       0                       0   2.35090968914164E-008                       0                       0       0.373656332492828       0.998560309410095                       0                       0                       0                       3 
                 0.5201     0.00200050012503126        1.94096288759056        1.71985430639626    -0.00249895209072385        7.33640477558716        2.62977445632774        1.89683392611185   2.35090968914164E-008                       0                       0                       0                       0   2.35090968914164E-008                       0                       0       0.373656332492828       0.998560309410095                       0                       0                       0                       3 
                 0.5201     0.00225056264066016        1.94101914459888        1.72005372187043    -0.00281433264526786         7.3366289450989        2.62980216749504        1.89679894135932   2.35090968914164E-008                       0                       0                       0                       0   2.35090968914164E-008                       0                       0       0.373656332492828       0.998560309410095                       0                       0                       0                       3 
                 0.5201     0.00250062515628907        1.94107557088223        1.72025355841551    -0.00312997886015359        7.33685364670308        2.62982996762266          1.896763855483   2.35090968914164E-008                       0                       0                       0                       0   2.35090968914164E-008                       0                       0       0.373656332492828       0.998560309410095                       0                       0                       0                       3 
                 0.5201     0.00275068767191798        1.94119318070982        1.72059497678888     -0.0035053447614119        7.33726321791851        2.62989081699076        1.89669283614122   2.35090968914164E-008                       0                       0                       0                       0   2.35090968914164E-008                       0                       0       0.373656332492828       0.998560309410095                       0                       0                       0                       3 
                 0.5201     0.00300075018754689        1.94130660094364        1.72091897327681    -0.00385018866925788        7.33765470373816        2.62995005497662        1.89662472676617   2.35090968914164E-008                       0                       0                       0                       0   2.35090968914164E-008                       0                       0       0.373656332492828       0.998560309410095                       0                       0                       0                       3 
                 0.5201     0.00325081270317579        1.94142002117745        1.72124296976474    -0.00419503257710387        7.33804618955782        2.63000929296249        1.89655661739111   2.35090968914164E-008                       0                       0                       0                       0   2.35090968914164E-008                       0                       0       0.373656332492828       0.998560309410095                       0                       0                       0                       3 
                 0.5201      0.0035008752188047        1.94153344141127        1.72156696625267    -0.00453987648494985        7.33843767537747        2.63006853094836        1.89648850801605   2.35090968914164E-008                       0                       0                       0                       0   2.35090968914164E-008                       0                       0       0.373656332492828       0.998560309410095                       0                       0                       0                       3 
                 0.5201     0.00375093773443361        1.94164714587688        1.72189132549837    -0.00488520947746184        7.33882973073399        2.63012791078182        1.89642022396991   2.35090968914164E-008                       0                       0                       0                       0   2.35090968914164E-008                       0                       0       0.373656332492828       0.998560309410095                       0                       0                       0                       3 
                 0.5201     0.00400100025006252        1.94182794551821        1.72227173178697    -0.00530770359220391         7.3393336264499        2.63022235080852        1.89631181772807   2.35090968914164E-008                       0                       0                       0                       0   2.35090968914164E-008                       0                       0       0.373656332492828       0.998560309410095                       0                       0                       0                       3 
                 0.5201     0.00425106276569142        1.94200322699814        1.72262568113732     -0.0056955748834255        7.33981163216196        2.63031507113422        1.89620753120946   2.35090968914164E-008                       0                       0                       0                       0   2.35090968914164E-008                       0                       0       0.373656332492828       0.998560309410095                       0                       0                       0                       3 
                 0.5201     0.00450112528132033        1.94217850847807        1.72297963048767     -0.0060834461746471        7.34028963787403        2.63040779145993        1.89610324469086   2.35090968914164E-008                       0                       0                       0                       0   2.35090968914164E-008                       0                       0       0.373656332492828       0.998560309410095                       0                       0                       0                       3 
                 0.5201     0.00475118779694924        1.94235378995799        1.72333357983802     -0.0064713174658687        7.34076764358609        2.63050051178564        1.89599895817226   2.35090968914164E-008                       0                       0                       0                       0   2.35090968914164E-008                       0                       0       0.373656332492828       0.998560309410095                       0                       0                       0                       3 
                 0.5201     0.00500125031257814        1.94241588011491        1.72338558511302     -0.0072387016476555        7.34068823321957         2.6304590687229        1.89590849565034   2.52202649875244E-008                       0                       0                       0                       0   2.52202649875244E-008                       0                       0     0.00111195899080485       0.998054921627045                       0                       0                       0                       4 
                 0.5201     0.00525131282820705        1.94265962557219        1.72392221346708    -0.00763792810793146        7.34143843325349        2.63060625029074        1.89577677987184   2.52202649875244E-008                       0                       0                       0                       0   2.52202649875244E-008                       0                       0     0.00111195899080485       0.998054921627045                       0                       0                       0                       4 
                 0.5201     0.00550137534383596         1.9428881591925        1.72438698355225     -0.0079653605772757        7.34212315174522        2.63075062496854        1.89565782696585   2.52202649875244E-008                       0                       0                       0                       0   2.52202649875244E-008                       0                       0     0.00111195899080485       0.998054921627045                       0                       0                       0                       4 
                 0.5201     0.00575143785946487        1.94311669281281        1.72485175363742    -0.00829279304661995        7.34280787023696        2.63089499964634        1.89553887405987   2.52202649875244E-008                       0                       0                       0                       0   2.52202649875244E-008                       0                       0     0.00111195899080485       0.998054921627045                       0                       0                       0                       4 
                 0.5201     0.00600150037509377        1.94334522643312        1.72531652372259    -0.00862022551596419        7.34349258872869        2.63103937432414        1.89541992115388   2.52202649875244E-008                       0                       0                       0                       0   2.52202649875244E-008                       0                       0     0.00111195899080485       0.998054921627045                       0                       0                       0                       4 
                 0.5201     0.00625156289072268        1.94357398450823        1.72578262458721    -0.00894949395597637        7.34417879046833        2.63118389625382        1.89530085721279   2.52202649875244E-008                       0                       0                       0                       0   2.52202649875244E-008                       0                       0     0.00111195899080485       0.998054921627045                       0                       0                       0                       4 
                 0.5201     0.00650162540635159        1.94381495239974         1.7263709205795     -0.0094772570924078        7.34501600016657        2.63134648298356        1.89518310721257   2.52202649875244E-008                       0                       0                       0                       0   2.52202649875244E-008                       0                       0     0.00111195899080485       0.998054921627045                       0                       0                       0                       4 
                 0.5201     0.00675168792198049        1.94404067206185        1.72690115311699    -0.00994433928554938        7.34579811343003         2.6315055956709        1.89507767597895   2.52202649875244E-008                       0                       0                       0                       0   2.52202649875244E-008                       0                       0     0.00111195899080485       0.998054921627045                       0                       0                       0                       4 
                 0.5201      0.0070017504376094        1.94426639172397        1.72743138565449      -0.010411421478691        7.34658022669349        2.63166470835823        1.89497224474533   2.52202649875244E-008                       0                       0                       0                       0   2.52202649875244E-008                       0                       0     0.00111195899080485       0.998054921627045                       0                       0                       0                       4 
                 0.5201     0.00725181295323831        1.94449211138608        1.72796161819198     -0.0108785036718325        7.34736233995695        2.63182382104556        1.89486681351171   2.52202649875244E-008                       0                       0                       0                       0   2.52202649875244E-008                       0                       0     0.00111195899080485       0.998054921627045                       0                       0                       0                       4 
                 0.5201     0.00750187546886722        1.94471819058552        1.72849313987729     -0.0113473571331297        7.34814585416414        2.63198307933638         1.8947611391878   2.52202649875244E-008                       0                       0                       0                       0   2.52202649875244E-008                       0                       0     0.00111195899080485       0.998054921627045                       0                       0                       0                       4 
                 0.5201     0.00775193798449612        1.94496815582672        1.72912661212842     -0.0119737506226364        7.34904543098008        2.63215520023738        1.89464164105853   2.52202649875244E-008                       0                       0                       0                       0   2.52202649875244E-008                       0                       0     0.00111195899080485       0.998054921627045                       0                       0                       0                       4 
                 0.5201     0.00800200050012503        1.94520281833573         1.7297157485738     -0.0125505076294923        7.34990023209521        2.63232318425297         1.8945339920173   2.52202649875244E-008                       0                       0                       0                       0   2.52202649875244E-008                       0                       0     0.00111195899080485       0.998054921627045                       0                       0                       0                       4 
                 0.5201     0.00825206301575394        1.94543748084474        1.73030488501918     -0.0131272646363483        7.35075503321034        2.63249116826857        1.89442634297607   2.52202649875244E-008                       0                       0                       0                       0   2.52202649875244E-008                       0                       0     0.00111195899080485       0.998054921627045                       0                       0                       0                       4 
                 0.5201     0.00850212553138285        1.94567214335375        1.73089402146456     -0.0137040216432042        7.35160983432548        2.63265915228416        1.89431869393485   2.52202649875244E-008                       0                       0                       0                       0   2.52202649875244E-008                       0                       0     0.00111195899080485       0.998054921627045                       0                       0                       0                       4 
                 0.5201     0.00875218804701175        1.94590733086444        1.73148430264759     -0.0142823407093401        7.35246582650273        2.63282727109784        1.89421063424072   2.52202649875244E-008                       0                       0                       0                       0   2.52202649875244E-008                       0                       0     0.00111195899080485       0.998054921627045                       0                       0                       0                       4 
                 0.5201     0.00900225056264066        1.94617812675628         1.7321564892613      -0.014977459413535        7.35340297610801        2.63300314047128        1.89407372122369   2.52202649875244E-008                       0                       0                       0                       0   2.52202649875244E-008                       0                       0     0.00111195899080485       0.998054921627045                       0                       0                       0                       4 
                 0.5201     0.00925231307826957        1.94643358465597        1.73279797190167     -0.0156339164384878        7.35430556858256        2.63317417707103         1.8939481624259   2.52202649875244E-008                       0                       0                       0                       0   2.52202649875244E-008                       0                       0     0.00111195899080485       0.998054921627045                       0                       0                       0                       4 
                 0.5201     0.00950237559389847        1.94668904255566        1.73343945454205     -0.0162903734634406        7.35520816105711        2.63334521367078        1.89382260362812   2.52202649875244E-008                       0                       0                       0                       0   2.52202649875244E-008                       0                       0     0.00111195899080485       0.998054921627045                       0                       0                       0                       4 
                 0.5201     0.00975243810952738        1.94694450045535        1.73408093718243     -0.0169468304883934        7.35611075353166        2.63351625027054        1.89369704483034   2.52202649875244E-008                       0                       0                       0                       0   2.52202649875244E-008                       0                       0     0.00111195899080485       0.998054921627045                       0                       0                       0                       4 
                 0.5201      0.0100025006251563        1.94728887563654        1.73435958662638     -0.0175566282228334        7.35685631305715        2.63376782214232        1.89354293288009   2.36306281209409E-008                       0                       0                       0                       0   2.36306281209409E-008                       0                       0     0.00484982365742326       0.996806025505066                       0                       0                       0                       4 
                 0.5201      0.0102525631407852        1.94757272602873        1.73513465591068     -0.0183654928085802        7.35786242953397        2.63393544019475         1.8933876218167   2.36306281209409E-008                       0                       0                       0                       0   2.36306281209409E-008                       0                       0     0.00484982365742326       0.996806025505066                       0                       0                       0                       4 
                 0.5201      0.0105026256564141        1.94783672125302        1.73586046391892     -0.0191422453220573        7.35882874267653        2.63410218406179        1.89325085464314   2.36306281209409E-008                       0                       0                       0                       0   2.36306281209409E-008                       0                       0     0.00484982365742326       0.996806025505066                       0                       0                       0                       4 
                 0.5201       0.010752688172043        1.94810071647731        1.73658627192716     -0.0199189978355345        7.35979505581909        2.63426892792884        1.89311408746958   2.36306281209409E-008                       0                       0                       0                       0   2.36306281209409E-008                       0                       0     0.00484982365742326       0.996806025505066                       0                       0                       0                       4 
                 0.5201      0.0110027506876719         1.9483647117016         1.7373120799354     -0.0206957503490117        7.36076136896166        2.63443567179589        1.89297732029602   2.36306281209409E-008                       0                       0                       0                       0   2.36306281209409E-008                       0                       0     0.00484982365742326       0.996806025505066                       0                       0                       0                       4 
                 0.5201      0.0112528132033008        1.94862962110841        1.73803995048858     -0.0214737567150448        7.36172904909086        2.63460233948264        1.89283961748137   2.36306281209409E-008                       0                       0                       0                       0   2.36306281209409E-008                       0                       0     0.00484982365742326       0.996806025505066                       0                       0                       0                       4 
                 0.5201      0.0115028757189297        1.94895211950781         1.7389187595587     -0.0223447610187522        7.36278540357975        2.63475782075194        1.89263832848266   2.36306281209409E-008                       0                       0                       0                       0   2.36306281209409E-008                       0                       0     0.00484982365742326       0.996806025505066                       0                       0                       0                       4 
                 0.5201      0.0117529382345586        1.94926013801345        1.73977825901377     -0.0232048153083664          7.363821734656        2.63491044683092        1.89244890520996   2.36306281209409E-008                       0                       0                       0                       0   2.36306281209409E-008                       0                       0     0.00484982365742326       0.996806025505066                       0                       0                       0                       4 
                 0.5201      0.0120030007501875        1.94956815651908        1.74063775846883     -0.0240648695979807        7.36485806573226         2.6350630729099        1.89225948193725   2.36306281209409E-008                       0                       0                       0                       0   2.36306281209409E-008                       0                       0     0.00484982365742326       0.996806025505066                       0                       0                       0                       4 
                 0.5201      0.0122530632658165        1.94987617502472         1.7414972579239     -0.0249249238875949        7.36589439680851        2.63521569898887        1.89207005866455   2.36306281209409E-008                       0                       0                       0                       0   2.36306281209409E-008                       0                       0     0.00484982365742326       0.996806025505066                       0                       0                       0                       4 
                 0.5201      0.0125031257814454        1.95018492978807        1.74235721821071     -0.0257849484204369         7.3669307946547        2.63536827558656        1.89187989585525   2.36306281209409E-008                       0                       0                       0                       0   2.36306281209409E-008                       0                       0     0.00484982365742326       0.996806025505066                       0                       0                       0                       4 
                 0.5201      0.0127531882970743        1.95053740554319        1.74327010755453      -0.026658551571736        7.36797182491103        2.63550914248902        1.89163944254062   2.36306281209409E-008                       0                       0                       0                       0   2.36306281209409E-008                       0                       0     0.00484982365742326       0.996806025505066                       0                       0                       0                       4 
                 0.5201      0.0130032508127032        1.95088074267741        1.74419344763669     -0.0275422312306993        7.36901244859575         2.6356450750906        1.89140413605292   2.36306281209409E-008                       0                       0                       0                       0   2.36306281209409E-008                       0                       0     0.00484982365742326       0.996806025505066                       0                       0                       0                       4 
                 0.5201      0.0132533133283321        1.95122407981163        1.74511678771885     -0.0284259108896626        7.37005307228048        2.63578100769219        1.89116882956522   2.36306281209409E-008                       0                       0                       0                       0   2.36306281209409E-008                       0                       0     0.00484982365742326       0.996806025505066                       0                       0                       0                       4 
                 0.5201       0.013503375843961        1.95156741694586        1.74604012780101     -0.0293095905486259        7.37109369596521        2.63591694029378        1.89093352307752   2.36306281209409E-008                       0                       0                       0                       0   2.36306281209409E-008                       0                       0     0.00484982365742326       0.996806025505066                       0                       0                       0                       4 