VARIABLES = "x"
 "y"
 "rho"
 "rhoU"
 "rhoV"
 "rhoE"
 "P"
 "T"
 "ABV"
 "error"
 "error_hMLP"
 "error_BD"
 "ABV_P"
 "ABV_I"
 "ABV_I_BD"
 "ABV_D"
 "Ducros"
 "Sk"
 "trouble_vertex"
 "trouble_face"
 "hMLP_penalty"
 "BD_penalty"
ZONE
DT=(DOUBLE,DOUBLE,DOUBLE,DOUBLE,DOUBLE,DOUBLE,DOUBLE,DOUBLE,DOUBLE,DOUBLE,DOUBLE,DOUBLE,DOUBLE,DOUBLE,DOUBLE,DOUBLE,DOUBLE,DOUBLE,DOUBLE,DOUBLE,DOUBLE,DOUBLE)
                 1.0501                       0        1.87278620745502        1.83296802183133    9.0322596944413E-008        7.09410577802875        2.47884301907345        1.85305731584653   4.20476382927626E-021                       0                       0                       0                       0   4.20476382927626E-021                       0                       0       0.997769415378571       0.998555183410645                       0                       0                       0                       3 
                 1.0501    0.000250062515628907        1.87276190185757        1.83295185295078    0.000817413499946671        7.09400960490413        2.47880585481288        1.85305359562543   4.20476382927626E-021                       0                       0                       0                       0   4.20476382927626E-021                       0                       0       0.997769415378571       0.998555183410645                       0                       0                       0                       3 
                 1.0501    0.000500125031257815        1.87273710012435         1.8329359703024     0.00164145049896383        7.09391163805794        2.47876779369153        1.85304968458289   4.20476382927626E-021                       0                       0                       0                       0   4.20476382927626E-021                       0                       0       0.997769415378571       0.998555183410645                       0                       0                       0                       3 
                 1.0501    0.000750187546886722        1.87271229839114        1.83292008765401     0.00246548749798099        7.09381367121174        2.47872973257017        1.85304577354034   4.20476382927626E-021                       0                       0                       0                       0   4.20476382927626E-021                       0                       0       0.997769415378571       0.998555183410645                       0                       0                       0                       3 
                 1.0501     0.00100025006251563        1.87268749665792        1.83290420500563     0.00328952449699814        7.09371570436555        2.47869167144882         1.8530418624978   4.20476382927626E-021                       0                       0                       0                       0   4.20476382927626E-021                       0                       0       0.997769415378571       0.998555183410645                       0                       0                       0                       3 
                 1.0501     0.00125031257814454        1.87266267026982        1.83288832593473      0.0041135245063819        7.09361755566347        2.47865353066862        1.85303791630639   4.20476382927626E-021                       0                       0                       0                       0   4.20476382927626E-021                       0                       0       0.997769415378571       0.998555183410645                       0                       0                       0                       3 
                 1.0501     0.00150037509377344        1.87262097069157        1.83288003608979       0.004920025738783        7.09339074752311        2.47855702402545        1.85300702127188   4.20476382927626E-021                       0                       0                       0                       0   4.20476382927626E-021                       0                       0       0.997769415378571       0.998555183410645                       0                       0                       0                       3 
                 1.0501     0.00175043760940235        1.87258114483151        1.83287488496058     0.00573452345141747        7.09317497244415         2.4784640175259        1.85297687762689   4.20476382927626E-021                       0                       0                       0                       0   4.20476382927626E-021                       0                       0       0.997769415378571       0.998555183410645                       0                       0                       0                       3 
                 1.0501     0.00200050012503126        1.87254131897144        1.83286973383137     0.00654902116405194        7.09295919736519        2.47837101102635        1.85294673398191   4.20476382927626E-021                       0                       0                       0                       0   4.20476382927626E-021                       0                       0       0.997769415378571       0.998555183410645                       0                       0                       0                       3 
                 1.0501     0.00225056264066016        1.87250149311138        1.83286458270217      0.0073635188766864        7.09274342228623         2.4782780045268        1.85291659033693   4.20476382927626E-021                       0                       0                       0                       0   4.20476382927626E-021                       0                       0       0.997769415378571       0.998555183410645                       0                       0                       0                       3 
                 1.0501     0.00250062515628907        1.87246157578675         1.8328593156622     0.00817787239679646        7.09252700373556        2.47818476715971        1.85288636464811   4.20476382927626E-021                       0                       0                       0                       0   4.20476382927626E-021                       0                       0       0.997769415378571       0.998555183410645                       0                       0                       0                       3 
                 1.0501     0.00275068767191798        1.87239161787168        1.83281689828426     0.00894874564928464        7.09208972144591        2.47801140345467        1.85282596361665   4.20476382927626E-021                       0                       0                       0                       0   4.20476382927626E-021                       0                       0       0.997769415378571       0.998555183410645                       0                       0                       0                       3 
                 1.0501     0.00300075018754689        1.87232591712648        1.83278048266251     0.00972888983139117        7.09167610484893        2.47784594727675        1.85276725028283   4.20476382927626E-021                       0                       0                       0                       0   4.20476382927626E-021                       0                       0       0.997769415378571       0.998555183410645                       0                       0                       0                       3 
                 1.0501     0.00325081270317579        1.87226021638128        1.83274406704076      0.0105090340134977        7.09126248825194        2.47768049109883        1.85270853694901   4.20476382927626E-021                       0                       0                       0                       0   4.20476382927626E-021                       0                       0       0.997769415378571       0.998555183410645                       0                       0                       0                       3 
                 1.0501      0.0035008752188047        1.87219451563609        1.83270765141901      0.0112891781956042        7.09084887165496         2.4775150349209        1.85264982361519   4.20476382927626E-021                       0                       0                       0                       0   4.20476382927626E-021                       0                       0       0.997769415378571       0.998555183410645                       0                       0                       0                       3 
                 1.0501     0.00375093773443361         1.8721286141041        1.83267087724305       0.012069000768095        7.09043387021051        2.47734912547464        1.85259097004366   4.20476382927626E-021                       0                       0                       0                       0   4.20476382927626E-021                       0                       0       0.997769415378571       0.998555183410645                       0                       0                       0                       3 
                 1.0501     0.00400100025006252        1.87201948112431        1.83255228735036      0.0127794396610131        7.08970621772989        2.47708149479167        1.85249883667464   4.20476382927626E-021                       0                       0                       0                       0   4.20476382927626E-021                       0                       0       0.997769415378571       0.998555183410645                       0                       0                       0                       3 
                 1.0501     0.00425106276569142        1.87191698319223        1.83244251583306      0.0135004157239119        7.08901482172091        2.47682613233084        1.85240931195686   4.20476382927626E-021                       0                       0                       0                       0   4.20476382927626E-021                       0                       0       0.997769415378571       0.998555183410645                       0                       0                       0                       3 
                 1.0501     0.00450112528132033        1.87181448526016        1.83233274431577      0.0142213917868107        7.08832342571193        2.47657076987002        1.85231978723909   4.20476382927626E-021                       0                       0                       0                       0   4.20476382927626E-021                       0                       0       0.997769415378571       0.998555183410645                       0                       0                       0                       3 
                 1.0501     0.00475118779694924        1.87171198732809        1.83222297279848      0.0149423678497095        7.08763202970294         2.4763154074092        1.85223026252131   4.20476382927626E-021                       0                       0                       0                       0   4.20476382927626E-021                       0                       0       0.997769415378571       0.998555183410645                       0                       0                       0                       3 
                 1.0501     0.00500125031257814        1.87153076586822        1.83200696656876      0.0155793994515338        7.08651823380567        2.47591774159614        1.85211221806792   3.79886538892649E-011                       0                       0                       0                       0   3.79886538892649E-011                       0                       0       0.993023753166199       0.998796701431274                       0                       0                       0                       4 
                 1.0501     0.00525131282820705        1.87136764507134        1.83178594160211      0.0162317179667855        7.08547150356464        2.47555194038186        1.85199995616479   3.79886538892649E-011                       0                       0                       0                       0   3.79886538892649E-011                       0                       0       0.993023753166199       0.998796701431274                       0                       0                       0                       4 
                 1.0501     0.00550137534383596        1.87121587757059        1.83158034958075      0.0169014851820917        7.08448744728702        2.47520724405003        1.85189223558012   3.79886538892649E-011                       0                       0                       0                       0   3.79886538892649E-011                       0                       0       0.993023753166199       0.998796701431274                       0                       0                       0                       4 
                 1.0501     0.00575143785946487        1.87106411006985        1.83137475755939      0.0175712523973979        7.08350339100941         2.4748625477182        1.85178451499544   3.79886538892649E-011                       0                       0                       0                       0   3.79886538892649E-011                       0                       0       0.993023753166199       0.998796701431274                       0                       0                       0                       4 
                 1.0501     0.00600150037509377         1.8709123425691        1.83116916553803      0.0182410196127041        7.08251933473179        2.47451785138637        1.85167679441077   3.79886538892649E-011                       0                       0                       0                       0   3.79886538892649E-011                       0                       0       0.993023753166199       0.998796701431274                       0                       0                       0                       4 
                 1.0501     0.00625156289072268        1.87075969871267        1.83096246659594      0.0189096934638069        7.08153101709954        2.47417171830791        1.85156886546789   3.79886538892649E-011                       0                       0                       0                       0   3.79886538892649E-011                       0                       0       0.993023753166199       0.998796701431274                       0                       0                       0                       4 
                 1.0501     0.00650162540635159        1.87048328928975        1.83060116573175      0.0194277577994096        7.07995108650191        2.47362601148983        1.85143397820741   3.79886538892649E-011                       0                       0                       0                       0   3.79886538892649E-011                       0                       0       0.993023753166199       0.998796701431274                       0                       0                       0                       4 
                 1.0501     0.00675168792198049        1.87021700447759        1.83025377446731      0.0199609251098502        7.07842701971203        2.47309906995217        1.85130310134468   3.79886538892649E-011                       0                       0                       0                       0   3.79886538892649E-011                       0                       0       0.993023753166199       0.998796701431274                       0                       0                       0                       4 
                 1.0501      0.0070017504376094        1.86995071966542        1.82990638320286      0.0204940924202909        7.07690295292214         2.4725721284145        1.85117222448196   3.79886538892649E-011                       0                       0                       0                       0   3.79886538892649E-011                       0                       0       0.993023753166199       0.998796701431274                       0                       0                       0                       4 
                 1.0501     0.00725181295323831        1.86968443485326        1.82955899193841      0.0210272597307316        7.07537888613225        2.47204518687683        1.85104134761924   3.79886538892649E-011                       0                       0                       0                       0   3.79886538892649E-011                       0                       0       0.993023753166199       0.998796701431274                       0                       0                       0                       4 
                 1.0501     0.00750187546886722        1.86941721416989        1.82921031778626      0.0215592108852048        7.07385018792531        2.47151671989799        1.85091025306648   3.79886538892649E-011                       0                       0                       0                       0   3.79886538892649E-011                       0                       0       0.993023753166199       0.998796701431274                       0                       0                       0                       4 
                 1.0501     0.00775193798449612        1.86903993350685        1.82871106907382       0.021949999658869        7.07178479046225        2.47081184112789        1.85075577108174   3.79886538892649E-011                       0                       0                       0                       0   3.79886538892649E-011                       0                       0       0.993023753166199       0.998796701431274                       0                       0                       0                       4 
                 1.0501     0.00800200050012503        1.86867155629377        1.82822421591107      0.0223535602255438        7.06976860071005        2.47012340237686        1.85060479055892   3.79886538892649E-011                       0                       0                       0                       0   3.79886538892649E-011                       0                       0       0.993023753166199       0.998796701431274                       0                       0                       0                       4 
                 1.0501     0.00825206301575394         1.8683031790807        1.82773736274833      0.0227571207922185        7.06775241095785        2.46943496362584        1.85045381003611   3.79886538892649E-011                       0                       0                       0                       0   3.79886538892649E-011                       0                       0       0.993023753166199       0.998796701431274                       0                       0                       0                       4 
                 1.0501     0.00850212553138285        1.86793480186762        1.82725050958558      0.0231606813588933        7.06573622120565        2.46874652487482        1.85030282951329   3.79886538892649E-011                       0                       0                       0                       0   3.79886538892649E-011                       0                       0       0.993023753166199       0.998796701431274                       0                       0                       0                       4 
                 1.0501     0.00875218804701175        1.86756546834204        1.82676221246004      0.0235629353095731        7.06371519125552        2.46805653741055        1.85015163197847   3.79886538892649E-011                       0                       0                       0                       0   3.79886538892649E-011                       0                       0       0.993023753166199       0.998796701431274                       0                       0                       0                       4 
                 1.0501     0.00900225056264066        1.86709975711451        1.82612724262942      0.0238334273683852        7.06121201691102        2.46721313425086          1.849980523626   3.79886538892649E-011                       0                       0                       0                       0   3.79886538892649E-011                       0                       0       0.993023753166199       0.998796701431274                       0                       0                       0                       4 
                 1.0501     0.00925231307826957        1.86664173579063        1.82550314505335      0.0241143744939823        7.05875139834401        2.46638389768552         1.8498124203087   3.79886538892649E-011                       0                       0                       0                       0   3.79886538892649E-011                       0                       0       0.993023753166199       0.998796701431274                       0                       0                       0                       4 
                 1.0501     0.00950237559389847        1.86618371446675        1.82487904747728      0.0243953216195795          7.056290779777        2.46555466112018        1.84964431699141   3.79886538892649E-011                       0                       0                       0                       0   3.79886538892649E-011                       0                       0       0.993023753166199       0.998796701431274                       0                       0                       0                       4 
                 1.0501     0.00975243810952738        1.86572569314287        1.82425494990122      0.0246762687451766           7.05383016121        2.46472542455484        1.84947621367411   3.79886538892649E-011                       0                       0                       0                       0   3.79886538892649E-011                       0                       0       0.993023753166199       0.998796701431274                       0                       0                       0                       4 
                 1.0501      0.0100025006251563        1.86533984513626        1.82370849590231      0.0250470326424065        7.05174417793198        2.46402902833762        1.84933624999904   2.00911665082515E-009                       0                       0                       0                       0   2.00911665082515E-009                       0                       0        0.93402087688446       0.998268663883209                       0                       0                       0                       4 
                 1.0501      0.0102525631407852        1.86479366571457        1.82293212203763      0.0251911292946339        7.04878718769171        2.46304462902852        1.84913860714162   2.00911665082515E-009                       0                       0                       0                       0   2.00911665082515E-009                       0                       0        0.93402087688446       0.998268663883209                       0                       0                       0                       4 
                 1.0501      0.0105026256564141        1.86424869562736        1.82215766450296      0.0253364101353175        7.04583711856566        2.46206248094206        1.84894145732055   2.00911665082515E-009                       0                       0                       0                       0   2.00911665082515E-009                       0                       0        0.93402087688446       0.998268663883209                       0                       0                       0                       4 
                 1.0501       0.010752688172043        1.86370372554014        1.82138320696829      0.0254816909760011         7.0428870494396         2.4610803328556        1.84874430749949   2.00911665082515E-009                       0                       0                       0                       0   2.00911665082515E-009                       0                       0        0.93402087688446       0.998268663883209                       0                       0                       0                       4 
                 1.0501      0.0110027506876719        1.86315875545293        1.82060874943362      0.0256269718166847        7.03993698031355        2.46009818476914        1.84854715767842   2.00911665082515E-009                       0                       0                       0                       0   2.00911665082515E-009                       0                       0        0.93402087688446       0.998268663883209                       0                       0                       0                       4 
                 1.0501      0.0112528132033008        1.86261375048925        1.81983403249916      0.0257718945928944        7.03698636608812        2.45911591435455        1.84834994374505   2.00911665082515E-009                       0                       0                       0                       0   2.00911665082515E-009                       0                       0        0.93402087688446       0.998268663883209                       0                       0                       0                       4 
                 1.0501      0.0115028757189297        1.86206416397898        1.81903489571608      0.0258820582649156        7.03397996548511         2.4581200633786        1.84814652572204   2.00911665082515E-009                       0                       0                       0                       0   2.00911665082515E-009                       0                       0        0.93402087688446       0.998268663883209                       0                       0                       0                       4 
                 1.0501      0.0117529382345586        1.86151361309472        1.81823472964922      0.0259901325082463        7.03096855755559        2.45712241347424        1.84794274605878   2.00911665082515E-009                       0                       0                       0                       0   2.00911665082515E-009                       0                       0        0.93402087688446       0.998268663883209                       0                       0                       0                       4 
                 1.0501      0.0120030007501875        1.86096306221046        1.81743456358236      0.0260982067515771        7.02795714962608        2.45612476356987        1.84773896639552   2.00911665082515E-009                       0                       0                       0                       0   2.00911665082515E-009                       0                       0        0.93402087688446       0.998268663883209                       0                       0                       0                       4 
                 1.0501      0.0122530632658165         1.8604125113262         1.8166343975155      0.0262062809949078        7.02494574169656        2.45512711366551        1.84753518673226   2.00911665082515E-009                       0                       0                       0                       0   2.00911665082515E-009                       0                       0        0.93402087688446       0.998268663883209                       0                       0                       0                       4 
                 1.0501      0.0125031257814454        1.85986230979176        1.81583471433831      0.0263144782894079        7.02193606263132        2.45413003130555        1.84733147950246   2.00911665082515E-009                       0                       0                       0                       0   2.00911665082515E-009                       0                       0        0.93402087688446       0.998268663883209                       0                       0                       0                       4 
                 1.0501      0.0127531882970743        1.85933475751995        1.81506694548416      0.0264239563042734         7.0190362160325        2.45316867424413        1.84713153781306   2.00911665082515E-009                       0                       0                       0                       0   2.00911665082515E-009                       0                       0        0.93402087688446       0.998268663883209                       0                       0                       0                       4 
                 1.0501      0.0130032508127032        1.85880407187378        1.81429522987233      0.0265280923029052        7.01611943627195        2.45220154955556        1.84693035756271   2.00911665082515E-009                       0                       0                       0                       0   2.00911665082515E-009                       0                       0        0.93402087688446       0.998268663883209                       0                       0                       0                       4 
                 1.0501      0.0132533133283321        1.85827338622761         1.8135235142605      0.0266322283015369         7.0132026565114        2.45123442486699        1.84672917731236   2.00911665082515E-009                       0                       0                       0                       0   2.00911665082515E-009                       0                       0        0.93402087688446       0.998268663883209                       0                       0                       0                       4 
                 1.0501       0.013503375843961        1.85774270058145        1.81275179864868      0.0267363643001687        7.01028587675084        2.45026730017842        1.84652799706201   2.00911665082515E-009                       0                       0                       0                       0   2.00911665082515E-009                       0                       0        0.93402087688446       0.998268663883209                       0                       0                       0                       4 