VARIABLES = "x"
 "y"
 "rho"
 "rhoU"
 "rhoV"
 "rhoE"
 "P"
 "T"
 "ABV"
 "error"
 "error_hMLP"
 "error_BD"
 "ABV_P"
 "ABV_I"
 "ABV_I_BD"
 "ABV_D"
 "Ducros"
 "Sk"
 "trouble_vertex"
 "trouble_face"
 "hMLP_penalty"
 "BD_penalty"
ZONE
DT=(DOUBLE,DOUBLE,DOUBLE,DOUBLE,DOUBLE,DOUBLE,DOUBLE,DOUBLE,DOUBLE,DOUBLE,DOUBLE,DOUBLE,DOUBLE,DOUBLE,DOUBLE,DOUBLE,DOUBLE,DOUBLE,DOUBLE,DOUBLE,DOUBLE,DOUBLE)
                 1.0501                       0        1.87458970595819        1.83291421416006  -5.17643632459714E-005        7.10019105603664         2.4816433633029        1.85336585446744   3.77919399674696E-017                       0                       0                       0                       0   3.77919399674696E-017                       0                       0       0.998376429080963       0.993849813938141                       0                       0                       0                       3 
                 1.0501    0.000250062515628907        1.87452039376192        1.83283945571806    0.000480061500667192        7.09988944670416        2.48153843587902        1.85335603512785   3.77919399674696E-017                       0                       0                       0                       0   3.77919399674696E-017                       0                       0       0.998376429080963       0.993849813938141                       0                       0                       0                       3 
                 1.0501    0.000500125031257815        1.87445108156564        1.83276469727606     0.00101188736458035        7.09958783737167        2.48143350845513        1.85334621578826   3.77919399674696E-017                       0                       0                       0                       0   3.77919399674696E-017                       0                       0       0.998376429080963       0.993849813938141                       0                       0                       0                       3 
                 1.0501    0.000750187546886722        1.87438176936937        1.83268993883406     0.00154371322849352        7.09928622803919        2.48132858103124        1.85333639644867   3.77919399674696E-017                       0                       0                       0                       0   3.77919399674696E-017                       0                       0       0.998376429080963       0.993849813938141                       0                       0                       0                       3 
                 1.0501     0.00100025006251563         1.8743124571731        1.83261518039206     0.00207553909240668         7.0989846187067        2.48122365360735        1.85332657710908   3.77919399674696E-017                       0                       0                       0                       0   3.77919399674696E-017                       0                       0       0.998376429080963       0.993849813938141                       0                       0                       0                       3 
                 1.0501     0.00125031257814454        1.87424453747225        1.83254216572453      0.0026140306491103        7.09869056502912        2.48112133027611        1.85331732149875   3.77919399674696E-017                       0                       0                       0                       0   3.77919399674696E-017                       0                       0       0.998376429080963       0.993849813938141                       0                       0                       0                       3 
                 1.0501     0.00150037509377344        1.87418410560769        1.83247852781877     0.00318836549525508         7.0984371402155        2.48103300987737        1.85331109721792   3.77919399674696E-017                       0                       0                       0                       0   3.77919399674696E-017                       0                       0       0.998376429080963       0.993849813938141                       0                       0                       0                       3 
                 1.0501     0.00175043760940235        1.87412367374312          1.832414889913     0.00376270034139986        7.09818371540189        2.48094468947864        1.85330487293708   3.77919399674696E-017                       0                       0                       0                       0   3.77919399674696E-017                       0                       0       0.998376429080963       0.993849813938141                       0                       0                       0                       3 
                 1.0501     0.00200050012503126        1.87406324187856        1.83235125200723     0.00433703518754464        7.09793029058827        2.48085636907991        1.85329864865625   3.77919399674696E-017                       0                       0                       0                       0   3.77919399674696E-017                       0                       0       0.998376429080963       0.993849813938141                       0                       0                       0                       3 
                 1.0501     0.00225056264066016        1.87399122688187        1.83227155217852     0.00490035770714347        7.09760368482599        2.48074279657138        1.85328500989381   3.77919399674696E-017                       0                       0                       0                       0   3.77919399674696E-017                       0                       0       0.998376429080963       0.993849813938141                       0                       0                       0                       3 
                 1.0501     0.00250062515628907        1.87382859071629        1.83206619115419     0.00537752478162635        7.09670454453344        2.48043166301606        1.85321336359222   3.77919399674696E-017                       0                       0                       0                       0   3.77919399674696E-017                       0                       0       0.998376429080963       0.993849813938141                       0                       0                       0                       3 
                 1.0501     0.00275068767191798         1.8736659545507        1.83186083012986     0.00585469185610922        7.09580540424088        2.48012052946075        1.85314171729064   3.77919399674696E-017                       0                       0                       0                       0   3.77919399674696E-017                       0                       0       0.998376429080963       0.993849813938141                       0                       0                       0                       3 
                 1.0501     0.00300075018754689        1.87350331838511        1.83165546910553     0.00633185893059209        7.09490626394832        2.47980939590544        1.85307007098905   3.77919399674696E-017                       0                       0                       0                       0   3.77919399674696E-017                       0                       0       0.998376429080963       0.993849813938141                       0                       0                       0                       3 
                 1.0501     0.00325081270317579        1.87334068221953         1.8314501080812     0.00680902600507497        7.09400712365576        2.47949826235012        1.85299842468747   3.77919399674696E-017                       0                       0                       0                       0   3.77919399674696E-017                       0                       0       0.998376429080963       0.993849813938141                       0                       0                       0                       3 
                 1.0501      0.0035008752188047        1.87318045223257        1.83124775115639     0.00729767645891276        7.09312102890998        2.47919159327082        1.85292773505932   3.77919399674696E-017                       0                       0                       0                       0   3.77919399674696E-017                       0                       0       0.998376429080963       0.993849813938141                       0                       0                       0                       3 
                 1.0501     0.00375093773443361        1.87302672322748        1.83105351066829     0.00781735255656475        7.09227018045148        2.47889698625427         1.8528596301589   3.77919399674696E-017                       0                       0                       0                       0   3.77919399674696E-017                       0                       0       0.998376429080963       0.993849813938141                       0                       0                       0                       3 
                 1.0501     0.00400100025006252         1.8728729942224         1.8308592701802     0.00833702865421673        7.09141933199298        2.47860237923772        1.85279152525848   3.77919399674696E-017                       0                       0                       0                       0   3.77919399674696E-017                       0                       0       0.998376429080963       0.993849813938141                       0                       0                       0                       3 
                 1.0501     0.00425106276569142        1.87271926521732         1.8306650296921     0.00885670475186872        7.09056848353448        2.47830777222117        1.85272342035806   3.77919399674696E-017                       0                       0                       0                       0   3.77919399674696E-017                       0                       0       0.998376429080963       0.993849813938141                       0                       0                       0                       3 
                 1.0501     0.00450112528132033        1.87254236994799        1.83043866231753     0.00935435620849169        7.08957126101629        2.47796271571567        1.85264047433206   3.77919399674696E-017                       0                       0                       0                       0   3.77919399674696E-017                       0                       0       0.998376429080963       0.993849813938141                       0                       0                       0                       3 
                 1.0501     0.00475118779694924        1.87228643664188        1.83010268529647     0.00977686458770052        7.08807464342125        2.47744553700171         1.8525068937533   3.77919399674696E-017                       0                       0                       0                       0   3.77919399674696E-017                       0                       0       0.998376429080963       0.993849813938141                       0                       0                       0                       3 
                 1.0501     0.00500125031257814        1.87203050333577        1.82976670827541      0.0101993729669093        7.08657802582622        2.47692835828775        1.85237331317454   3.77919399674696E-017                       0                       0                       0                       0   3.77919399674696E-017                       0                       0       0.998376429080963       0.993849813938141                       0                       0                       0                       3 
                 1.0501     0.00525131282820705        1.87177457002967        1.82943073125436      0.0106218813461182        7.08508140823118        2.47641117957379        1.85223973259577   3.77919399674696E-017                       0                       0                       0                       0   3.77919399674696E-017                       0                       0       0.998376429080963       0.993849813938141                       0                       0                       0                       3 
                 1.0501     0.00550137534383596        1.87151863672356         1.8290947542333       0.011044389725327        7.08358479063614        2.47589400085983        1.85210615201701   3.77919399674696E-017                       0                       0                       0                       0   3.77919399674696E-017                       0                       0       0.998376429080963       0.993849813938141                       0                       0                       0                       3 
                 1.0501     0.00575143785946487        1.87126610878424        1.82876304678087      0.0114831991439419        7.08210667107579        2.47538313904982        1.85197390889348   3.77919399674696E-017                       0                       0                       0                       0   3.77919399674696E-017                       0                       0       0.998376429080963       0.993849813938141                       0                       0                       0                       3 
                 1.0501     0.00600150037509377        1.87101905580984        1.82843820371044      0.0119482164939199        7.08065829165721        2.47488243321703        1.85184381605829   3.77919399674696E-017                       0                       0                       0                       0   3.77919399674696E-017                       0                       0       0.998376429080963       0.993849813938141                       0                       0                       0                       3 
                 1.0501     0.00625156289072268        1.87077200283544        1.82811336064002      0.0124132338438978        7.07920991223864        2.47438172738424         1.8517137232231   3.77919399674696E-017                       0                       0                       0                       0   3.77919399674696E-017                       0                       0       0.998376429080963       0.993849813938141                       0                       0                       0                       3 
                 1.0501     0.00650162540635159        1.87052494986104        1.82778851756959      0.0128782511938758        7.07776153282007        2.47388102155146        1.85158363038791   3.77919399674696E-017                       0                       0                       0                       0   3.77919399674696E-017                       0                       0       0.998376429080963       0.993849813938141                       0                       0                       0                       3 
                 1.0501     0.00675168792198049        1.87039453430616        1.82752740460964       0.013359064116128        7.07688239755728        2.47360518567301        1.85150630209694   3.03078673269397E-009                       0                       0                       0                       0   3.03078673269397E-009                       0                       0       0.998615503311157       0.996209859848022                       0                       0                       0                       4 
                 1.0501      0.0070017504376094        1.87000970204632        1.82701229171303      0.0136714294904903        7.07480075122144        2.47289940051826         1.8513587168863   3.03078673269397E-009                       0                       0                       0                       0   3.03078673269397E-009                       0                       0       0.998615503311157       0.996209859848022                       0                       0                       0                       4 
                 1.0501     0.00725181295323831        1.86962486978647        1.82649717881642      0.0139837948648526        7.07271910488559        2.47219361536351        1.85121113167566   3.03078673269397E-009                       0                       0                       0                       0   3.03078673269397E-009                       0                       0       0.998615503311157       0.996209859848022                       0                       0                       0                       4 
                 1.0501     0.00750187546886722        1.86924003752663         1.8259820659198      0.0142961602392149        7.07063745854975        2.47148783020876        1.85106354646502   3.03078673269397E-009                       0                       0                       0                       0   3.03078673269397E-009                       0                       0       0.998615503311157       0.996209859848022                       0                       0                       0                       4 
                 1.0501     0.00775193798449612        1.86885520526678        1.82546695302319      0.0146085256135772         7.0685558122139          2.470782045054        1.85091596125438   3.03078673269397E-009                       0                       0                       0                       0   3.03078673269397E-009                       0                       0       0.998615503311157       0.996209859848022                       0                       0                       0                       4 
                 1.0501     0.00800200050012503        1.86847223902611        1.82495491905821      0.0149287530515221        7.06648522870599        2.47007979200697        1.85076915577318   3.03078673269397E-009                       0                       0                       0                       0   3.03078673269397E-009                       0                       0       0.998615503311157       0.996209859848022                       0                       0                       0                       4 
                 1.0501     0.00825206301575394         1.8680911627978        1.82444600361363      0.0152569436431371        7.06442585027141        2.46938111648334        1.85062314004715   3.03078673269397E-009                       0                       0                       0                       0   3.03078673269397E-009                       0                       0       0.998615503311157       0.996209859848022                       0                       0                       0                       4 
                 1.0501     0.00850212553138285        1.86771008656949        1.82393708816905      0.0155851342347521        7.06236647183682        2.46868244095972        1.85047712432111   3.03078673269397E-009                       0                       0                       0                       0   3.03078673269397E-009                       0                       0       0.998615503311157       0.996209859848022                       0                       0                       0                       4 
                 1.0501     0.00875218804701175        1.86732901034119        1.82342817272448       0.015913324826367        7.06030709340224        2.46798376543609        1.85033110859508   3.03078673269397E-009                       0                       0                       0                       0   3.03078673269397E-009                       0                       0       0.998615503311157       0.996209859848022                       0                       0                       0                       4 
                 1.0501     0.00900225056264066        1.86692709998207        1.82289229331726      0.0162122603698857        7.05812407236766        2.46724221757675        1.85017333186234   3.03078673269397E-009                       0                       0                       0                       0   3.03078673269397E-009                       0                       0       0.998615503311157       0.996209859848022                       0                       0                       0                       4 
                 1.0501     0.00925231307826957        1.86650006602502        1.82232389843041      0.0164759176446418        7.05579195238584        2.46644897054476         1.8500013726899   3.03078673269397E-009                       0                       0                       0                       0   3.03078673269397E-009                       0                       0       0.998615503311157       0.996209859848022                       0                       0                       0                       4 
                 1.0501     0.00950237559389847        1.86607303206797        1.82175550354355      0.0167395749193978        7.05345983240401        2.46565572351277        1.84982941351746   3.03078673269397E-009                       0                       0                       0                       0   3.03078673269397E-009                       0                       0       0.998615503311157       0.996209859848022                       0                       0                       0                       4 
                 1.0501     0.00975243810952738        1.86564599811092        1.82118710865669      0.0170032321941538        7.05112771242219        2.46486247648078        1.84965745434502   3.03078673269397E-009                       0                       0                       0                       0   3.03078673269397E-009                       0                       0       0.998615503311157       0.996209859848022                       0                       0                       0                       4 
                 1.0501      0.0100025006251563        1.86521896415386        1.82061871376984      0.0172668894689098        7.04879559244036        2.46406922944879        1.84948549517258   3.03078673269397E-009                       0                       0                       0                       0   3.03078673269397E-009                       0                       0       0.998615503311157       0.996209859848022                       0                       0                       0                       4 
                 1.0501      0.0102525631407852        1.86479422189875        1.82005410019117       0.017540202328465        7.04647709171576        2.46328028754259        1.84931450997347   3.03078673269397E-009                       0                       0                       0                       0   3.03078673269397E-009                       0                       0       0.998615503311157       0.996209859848022                       0                       0                       0                       4 
                 1.0501      0.0105026256564141        1.86437094397323        1.81949190275635      0.0178196848204737        7.04416729329279        2.46249409648413        1.84914414711443   3.03078673269397E-009                       0                       0                       0                       0   3.03078673269397E-009                       0                       0       0.998615503311157       0.996209859848022                       0                       0                       0                       4 
                 1.0501       0.010752688172043        1.86394766604772        1.81892970532153      0.0180991673124824        7.04185749486982        2.46170790542567        1.84897378425539   3.03078673269397E-009                       0                       0                       0                       0   3.03078673269397E-009                       0                       0       0.998615503311157       0.996209859848022                       0                       0                       0                       4 
                 1.0501      0.0110027506876719        1.86352438812221        1.81836750788672      0.0183786498044911        7.03954769644685        2.46092171436722        1.84880342139636   3.03078673269397E-009                       0                       0                       0                       0   3.03078673269397E-009                       0                       0       0.998615503311157       0.996209859848022                       0                       0                       0                       4 
                 1.0501      0.0112528132033008        1.86307505233023         1.8177716054986      0.0186215633676063        7.03708331436798        2.46008199370093        1.84861822045233   3.03078673269397E-009                       0                       0                       0                       0   3.03078673269397E-009                       0                       0       0.998615503311157       0.996209859848022                       0                       0                       0                       4 
                 1.0501      0.0115028757189297        1.86260578984717         1.8171499286215      0.0188365123331561        7.03450072074018         2.4592013384493        1.84842167268772   3.03078673269397E-009                       0                       0                       0                       0   3.03078673269397E-009                       0                       0       0.998615503311157       0.996209859848022                       0                       0                       0                       4 
                 1.0501      0.0117529382345586        1.86213652736412         1.8165282517444      0.0190514612987058        7.03191812711238        2.45832068319767        1.84822512492311   3.03078673269397E-009                       0                       0                       0                       0   3.03078673269397E-009                       0                       0       0.998615503311157       0.996209859848022                       0                       0                       0                       4 
                 1.0501      0.0120030007501875        1.86166726488106         1.8159065748673      0.0192664102642556        7.02933553348457        2.45744002794603        1.84802857715849   3.03078673269397E-009                       0                       0                       0                       0   3.03078673269397E-009                       0                       0       0.998615503311157       0.996209859848022                       0                       0                       0                       4 
                 1.0501      0.0122530632658165          1.861198002398         1.8152848979902      0.0194813592298053        7.02675293985677         2.4565593726944        1.84783202939388   3.03078673269397E-009                       0                       0                       0                       0   3.03078673269397E-009                       0                       0       0.998615503311157       0.996209859848022                       0                       0                       0                       4 
                 1.0501      0.0125031257814454         1.8607314670046        1.81466770479786      0.0197077574530107        7.02418645643828        2.45568384165392        1.84763664622271   3.03078673269397E-009                       0                       0                       0                       0   3.03078673269397E-009                       0                       0       0.998615503311157       0.996209859848022                       0                       0                       0                       4 
                 1.0501      0.0127531882970743        1.86026597396748        1.81405222537279      0.0199385318454131        7.02162613071173        2.45481026920462         1.8474417081859   3.03078673269397E-009                       0                       0                       0                       0   3.03078673269397E-009                       0                       0       0.998615503311157       0.996209859848022                       0                       0                       0                       4 
                 1.0501      0.0130032508127032        1.85980048093036        1.81343674594773      0.0201693062378154        7.01906580498519        2.45393669675531        1.84724677014908   3.03078673269397E-009                       0                       0                       0                       0   3.03078673269397E-009                       0                       0       0.998615503311157       0.996209859848022                       0                       0                       0                       4 
                 1.0501      0.0132533133283321        1.85933498789324        1.81282126652267      0.0204000806302178        7.01650547925865        2.45306312430601        1.84705183211227   3.03078673269397E-009                       0                       0                       0                       0   3.03078673269397E-009                       0                       0       0.998615503311157       0.996209859848022                       0                       0                       0                       4 
                 1.0501       0.013503375843961        1.85892560645007        1.81225812505068      0.0206385018930019        7.01424421315583        2.45229933916823        1.84688331249422   1.37904965225033E-009                       0                       0                       0                       0   1.37904965225033E-009                       0                       0       0.994604587554932       0.995502054691315                       0                       0                       0                       4 