VARIABLES = "x"
 "y"
 "rho"
 "rhoU"
 "rhoV"
 "rhoE"
 "P"
 "T"
 "ABV"
 "error"
 "error_hMLP"
 "error_BD"
 "ABV_P"
 "ABV_I"
 "ABV_I_BD"
 "ABV_D"
 "Ducros"
 "Sk"
 "trouble_vertex"
 "trouble_face"
 "hMLP_penalty"
 "BD_penalty"
ZONE
DT=(DOUBLE,DOUBLE,DOUBLE,DOUBLE,DOUBLE,DOUBLE,DOUBLE,DOUBLE,DOUBLE,DOUBLE,DOUBLE,DOUBLE,DOUBLE,DOUBLE,DOUBLE,DOUBLE,DOUBLE,DOUBLE,DOUBLE,DOUBLE,DOUBLE,DOUBLE)
                 0.5201                       0        1.94591136275359        1.72853977273135   -0.000227288416570617        7.34728479960663        2.63182389063098        1.89348472995397    3.5168447709566E-008                       0                       0                       0                       0   2.66200839149633E-008   8.54836379460266E-009                       0       0.384370654821396       0.995856404304504                       1                       0                       0                       3 
                 0.5201    0.000250062515628907        1.94592184177727        1.72859435565291   -0.000578222003008053        7.34729619554669        2.63181057249214        1.89346494914498    3.5168447709566E-008                       0                       0                       0                       0   2.66200839149633E-008   8.54836379460266E-009                       0       0.384370654821396       0.995856404304504                       1                       0                       0                       3 
                 0.5201    0.000500125031257815        1.94592779777014        1.72864499500668   -0.000888892265416459         7.3472937272974        2.63179243622557         1.8934461019153    3.5168447709566E-008                       0                       0                       0                       0   2.66200839149633E-008   8.54836379460266E-009                       0       0.384370654821396       0.995856404304504                       1                       0                       0                       3 
                 0.5201    0.000750187546886722          1.945933753763        1.72869563436045    -0.00119956252782486         7.3472912590481          2.631774299959        1.89342725468562    3.5168447709566E-008                       0                       0                       0                       0   2.66200839149633E-008   8.54836379460266E-009                       0       0.384370654821396       0.995856404304504                       1                       0                       0                       3 
                 0.5201     0.00100025006251563        1.94593970975587        1.72874627371421    -0.00151023279023327         7.3472887907988        2.63175616369243        1.89340840745594    3.5168447709566E-008                       0                       0                       0                       0   2.66200839149633E-008   8.54836379460266E-009                       0       0.384370654821396       0.995856404304504                       1                       0                       0                       3 
                 0.5201     0.00125031257814454        1.94594566574874        1.72879691306798    -0.00182090305264168        7.34728632254951        2.63173802742586        1.89338956022626    3.5168447709566E-008                       0                       0                       0                       0   2.66200839149633E-008   8.54836379460266E-009                       0       0.384370654821396       0.995856404304504                       1                       0                       0                       3 
                 0.5201     0.00150037509377344         1.9459516217416        1.72884755242175    -0.00213157331505008        7.34728385430021        2.63171989115929        1.89337071299657    3.5168447709566E-008                       0                       0                       0                       0   2.66200839149633E-008   8.54836379460266E-009                       0       0.384370654821396       0.995856404304504                       1                       0                       0                       3 
                 0.5201     0.00175043760940235        1.94595757773447        1.72889819177552    -0.00244224357745849        7.34728138605092        2.63170175489273        1.89335186576689    3.5168447709566E-008                       0                       0                       0                       0   2.66200839149633E-008   8.54836379460266E-009                       0       0.384370654821396       0.995856404304504                       1                       0                       0                       3 
                 0.5201     0.00200050012503126        1.94596353372734        1.72894883112929    -0.00275291383986689        7.34727891780162        2.63168361862616        1.89333301853721    3.5168447709566E-008                       0                       0                       0                       0   2.66200839149633E-008   8.54836379460266E-009                       0       0.384370654821396       0.995856404304504                       1                       0                       0                       3 
                 0.5201     0.00225056264066016        1.94597484572158        1.72901231698082    -0.00307614703205994        7.34729902290129        2.63167073650116        1.89331274222968    3.5168447709566E-008                       0                       0                       0                       0   2.66200839149633E-008   8.54836379460266E-009                       0       0.384370654821396       0.995856404304504                       1                       0                       0                       3 
                 0.5201     0.00250062515628907        1.94601999372365        1.72916927456838    -0.00342585644292995        7.34747104285608        2.63169050113799        1.89328303664664    3.5168447709566E-008                       0                       0                       0                       0   2.66200839149633E-008   8.54836379460266E-009                       0       0.384370654821396       0.995856404304504                       1                       0                       0                       3 
                 0.5201     0.00275068767191798         1.9460619003041        1.72932340600542    -0.00374671121884762        7.34763314244573        2.63170686670397        1.89325403471741    3.5168447709566E-008                       0                       0                       0                       0   2.66200839149633E-008   8.54836379460266E-009                       0       0.384370654821396       0.995856404304504                       1                       0                       0                       3 
                 0.5201     0.00300075018754689        1.94610380688454        1.72947753744245    -0.00406756599476528        7.34779524203538        2.63172323226996        1.89322503278818    3.5168447709566E-008                       0                       0                       0                       0   2.66200839149633E-008   8.54836379460266E-009                       0       0.384370654821396       0.995856404304504                       1                       0                       0                       3 
                 0.5201     0.00325081270317579        1.94614571346498        1.72963166887949    -0.00438842077068295        7.34795734162503        2.63173959783595        1.89319603085894    3.5168447709566E-008                       0                       0                       0                       0   2.66200839149633E-008   8.54836379460266E-009                       0       0.384370654821396       0.995856404304504                       1                       0                       0                       3 
                 0.5201      0.0035008752188047        1.94618762004543        1.72978580031652    -0.00470927554660061        7.34811944121469        2.63175596340193        1.89316702892971    3.5168447709566E-008                       0                       0                       0                       0   2.66200839149633E-008   8.54836379460266E-009                       0       0.384370654821396       0.995856404304504                       1                       0                       0                       3 
                 0.5201     0.00375093773443361        1.94622952662587        1.72993993175355    -0.00503013032251828        7.34828154080434        2.63177232896792        1.89313802700048    3.5168447709566E-008                       0                       0                       0                       0   2.66200839149633E-008   8.54836379460266E-009                       0       0.384370654821396       0.995856404304504                       1                       0                       0                       3 
                 0.5201     0.00400100025006252        1.94627143320631        1.73009406319059    -0.00535098509843594        7.34844364039399        2.63178869453391        1.89310902507125    3.5168447709566E-008                       0                       0                       0                       0   2.66200839149633E-008   8.54836379460266E-009                       0       0.384370654821396       0.995856404304504                       1                       0                       0                       3 
                 0.5201     0.00425106276569142        1.94631333978676        1.73024819462762    -0.00567183987435361        7.34860573998365        2.63180506009989        1.89308002314202    3.5168447709566E-008                       0                       0                       0                       0   2.66200839149633E-008   8.54836379460266E-009                       0       0.384370654821396       0.995856404304504                       1                       0                       0                       3 
                 0.5201     0.00450112528132033        1.94636596141054        1.73042801601958    -0.00601782052208903        7.34881298627123        2.63183187313719        1.89304812656998    3.5168447709566E-008                       0                       0                       0                       0   2.66200839149633E-008   8.54836379460266E-009                       0       0.384370654821396       0.995856404304504                       1                       0                       0                       3 
                 0.5201     0.00475118779694924        1.94644578071581        1.73068733485876     -0.0063663057484159         7.3491455629856        2.63188470481077         1.8930085166038    3.5168447709566E-008                       0                       0                       0                       0   2.66200839149633E-008   8.54836379460266E-009                       0       0.384370654821396       0.995856404304504                       1                       0                       0                       3 
                 0.5201     0.00500125031257814        1.94652363788383        1.73094494496466    -0.00669734501328033        7.34947212309902        2.63193551855171        1.89296935997502    3.5168447709566E-008                       0                       0                       0                       0   2.66200839149633E-008   8.54836379460266E-009                       0       0.384370654821396       0.995856404304504                       1                       0                       0                       3 
                 0.5201     0.00525131282820705        1.94660149505185        1.73120255507056    -0.00702838427814476        7.34979868321244        2.63198633229266        1.89293020334624    3.5168447709566E-008                       0                       0                       0                       0   2.66200839149633E-008   8.54836379460266E-009                       0       0.384370654821396       0.995856404304504                       1                       0                       0                       3 
                 0.5201     0.00550137534383596        1.94667935221987        1.73146016517646    -0.00735942354300918        7.35012524332585        2.63203714603361        1.89289104671745    3.5168447709566E-008                       0                       0                       0                       0   2.66200839149633E-008   8.54836379460266E-009                       0       0.384370654821396       0.995856404304504                       1                       0                       0                       3 
                 0.5201     0.00575143785946487        1.94675720938789        1.73171777528236    -0.00769046280787361        7.35045180343927        2.63208795977455        1.89285189008867    3.5168447709566E-008                       0                       0                       0                       0   2.66200839149633E-008   8.54836379460266E-009                       0       0.384370654821396       0.995856404304504                       1                       0                       0                       3 
                 0.5201     0.00600150037509377        1.94683506655591        1.73197538538826    -0.00802150207273804        7.35077836355268         2.6321387735155        1.89281273345989    3.5168447709566E-008                       0                       0                       0                       0   2.66200839149633E-008   8.54836379460266E-009                       0       0.384370654821396       0.995856404304504                       1                       0                       0                       3 
                 0.5201     0.00625156289072268        1.94691292372393        1.73223299549416    -0.00835254133760246         7.3511049236661        2.63218958725645        1.89277357683111    3.5168447709566E-008                       0                       0                       0                       0   2.66200839149633E-008   8.54836379460266E-009                       0       0.384370654821396       0.995856404304504                       1                       0                       0                       3 
                 0.5201     0.00650162540635159        1.94699078089195        1.73249060560006    -0.00868358060246689        7.35143148377951         2.6322404009974        1.89273442020233    3.5168447709566E-008                       0                       0                       0                       0   2.66200839149633E-008   8.54836379460266E-009                       0       0.384370654821396       0.995856404304504                       1                       0                       0                       3 
                 0.5201     0.00675168792198049        1.94696757533727        1.73037964378365    -0.00863758247298298        7.35033963974971        2.63255041932699        1.89298000825645   1.01383569983682E-007                       0                       0                       0                       0   7.46837685028368E-008   2.66997943754177E-008                       0      0.0484034828841686       0.996111154556274                       0                       0                       0                       4 
                 0.5201      0.0070017504376094        1.94709518090853        1.73086664269491    -0.00912917795323697        7.35085839289089        2.63260376822679        1.89289434067293   1.01383569983682E-007                       0                       0                       0                       0   7.46837685028368E-008   2.66997943754177E-008                       0      0.0484034828841686       0.996111154556274                       0                       0                       0                       4 
                 0.5201     0.00725181295323831        1.94722163844177        1.73135527556918    -0.00961981250726263        7.35137495454252        2.63265552097563        1.89280863608187   1.01383569983682E-007                       0                       0                       0                       0   7.46837685028368E-008   2.66997943754177E-008                       0      0.0484034828841686       0.996111154556274                       0                       0                       0                       4 
                 0.5201     0.00750187546886722        1.94734809597501        1.73184390844345     -0.0101104470612883        7.35189151619416        2.63270727372446        1.89272293149082   1.01383569983682E-007                       0                       0                       0                       0   7.46837685028368E-008   2.66997943754177E-008                       0      0.0484034828841686       0.996111154556274                       0                       0                       0                       4 
                 0.5201     0.00775193798449612        1.94747455350825        1.73233254131773     -0.0106010816153139        7.35240807784579        2.63275902647329        1.89263722689977   1.01383569983682E-007                       0                       0                       0                       0   7.46837685028368E-008   2.66997943754177E-008                       0      0.0484034828841686       0.996111154556274                       0                       0                       0                       4 
                 0.5201     0.00800200050012503        1.94760101104149          1.732821174192     -0.0110917161693396        7.35292463949743        2.63281077922212        1.89255152230871   1.01383569983682E-007                       0                       0                       0                       0   7.46837685028368E-008   2.66997943754177E-008                       0      0.0484034828841686       0.996111154556274                       0                       0                       0                       4 
                 0.5201     0.00825206301575394        1.94772746857473        1.73330980706627     -0.0115823507233652        7.35344120114906        2.63286253197095        1.89246581771766   1.01383569983682E-007                       0                       0                       0                       0   7.46837685028368E-008   2.66997943754177E-008                       0      0.0484034828841686       0.996111154556274                       0                       0                       0                       4 
                 0.5201     0.00850212553138285        1.94785392610797        1.73379843994054     -0.0120729852773909         7.3539577628007        2.63291428471978         1.8923801131266   1.01383569983682E-007                       0                       0                       0                       0   7.46837685028368E-008   2.66997943754177E-008                       0      0.0484034828841686       0.996111154556274                       0                       0                       0                       4 
                 0.5201     0.00875218804701175         1.9479803836412        1.73428707281481     -0.0125636198314165        7.35447432445233        2.63296603746861        1.89229440853555   1.01383569983682E-007                       0                       0                       0                       0   7.46837685028368E-008   2.66997943754177E-008                       0      0.0484034828841686       0.996111154556274                       0                       0                       0                       4 
                 0.5201     0.00900225056264066        1.94812077409389        1.73477046871424     -0.0130543483924553         7.3550133125504        2.63303025809093        1.89220422352677   1.01383569983682E-007                       0                       0                       0                       0   7.46837685028368E-008   2.66997943754177E-008                       0      0.0484034828841686       0.996111154556274                       0                       0                       0                       4 
                 0.5201     0.00925231307826957        1.94826108870063        1.73527156356458      -0.013531053875395         7.3555471519471        2.63308600833047          1.892108055705   1.01383569983682E-007                       0                       0                       0                       0   7.46837685028368E-008   2.66997943754177E-008                       0      0.0484034828841686       0.996111154556274                       0                       0                       0                       4 
                 0.5201     0.00950237559389847        1.94840140330736        1.73577265841492     -0.0140077593583346        7.35608099134381        2.63314175857001        1.89201188788323   1.01383569983682E-007                       0                       0                       0                       0   7.46837685028368E-008   2.66997943754177E-008                       0      0.0484034828841686       0.996111154556274                       0                       0                       0                       4 
                 0.5201     0.00975243810952738        1.94854171791409        1.73627375326526     -0.0144844648412743        7.35661483074052        2.63319750880955        1.89191572006147   1.01383569983682E-007                       0                       0                       0                       0   7.46837685028368E-008   2.66997943754177E-008                       0      0.0484034828841686       0.996111154556274                       0                       0                       0                       4 
                 0.5201      0.0100025006251563        1.94868203252083        1.73677484811559      -0.014961170324214        7.35714867013723        2.63325325904909         1.8918195522397   1.01383569983682E-007                       0                       0                       0                       0   7.46837685028368E-008   2.66997943754177E-008                       0      0.0484034828841686       0.996111154556274                       0                       0                       0                       4 
                 0.5201      0.0102525631407852        1.94882234712756        1.73727594296593     -0.0154378758071537        7.35768250953394        2.63330900928863        1.89172338441794   1.01383569983682E-007                       0                       0                       0                       0   7.46837685028368E-008   2.66997943754177E-008                       0      0.0484034828841686       0.996111154556274                       0                       0                       0                       4 
                 0.5201      0.0105026256564141        1.94896266173429        1.73777703781627     -0.0159145812900933        7.35821634893065        2.63336475952817        1.89162721659617   1.01383569983682E-007                       0                       0                       0                       0   7.46837685028368E-008   2.66997943754177E-008                       0      0.0484034828841686       0.996111154556274                       0                       0                       0                       4 
                 0.5201       0.010752688172043        1.94910297634103        1.73827813266661      -0.016391286773033        7.35875018832736        2.63342050976771         1.8915310487744   1.01383569983682E-007                       0                       0                       0                       0   7.46837685028368E-008   2.66997943754177E-008                       0      0.0484034828841686       0.996111154556274                       0                       0                       0                       4 
                 0.5201      0.0110027506876719        1.94924329094776        1.73877922751695     -0.0168679922559727        7.35928402772407        2.63347626000725        1.89143488095264   1.01383569983682E-007                       0                       0                       0                       0   7.46837685028368E-008   2.66997943754177E-008                       0      0.0484034828841686       0.996111154556274                       0                       0                       0                       4 
                 0.5201      0.0112528132033008        1.94939910133781        1.73927649461773     -0.0173432132815567        7.35984224276361        2.63354498303587        1.89133310635156   1.01383569983682E-007                       0                       0                       0                       0   7.46837685028368E-008   2.66997943754177E-008                       0      0.0484034828841686       0.996111154556274                       0                       0                       0                       4 
                 0.5201      0.0115028757189297        1.94955325960364        1.73979006485853     -0.0178059899030103         7.3603933062478        2.63360478442371        1.89122654237107   1.01383569983682E-007                       0                       0                       0                       0   7.46837685028368E-008   2.66997943754177E-008                       0      0.0484034828841686       0.996111154556274                       0                       0                       0                       4 
                 0.5201      0.0117529382345586        1.94970741786947        1.74030363509934      -0.018268766524464        7.36094436973199        2.63366458581155        1.89111997839059   1.01383569983682E-007                       0                       0                       0                       0   7.46837685028368E-008   2.66997943754177E-008                       0      0.0484034828841686       0.996111154556274                       0                       0                       0                       4 
                 0.5201      0.0120030007501875        1.94986157613531        1.74081720534014     -0.0187315431459177        7.36149543321618        2.63372438719939         1.8910134144101   1.01383569983682E-007                       0                       0                       0                       0   7.46837685028368E-008   2.66997943754177E-008                       0      0.0484034828841686       0.996111154556274                       0                       0                       0                       4 
                 0.5201      0.0122530632658165        1.95001573440114        1.74133077558094     -0.0191943197673713        7.36204649670037        2.63378418858723        1.89090685042961   1.01383569983682E-007                       0                       0                       0                       0   7.46837685028368E-008   2.66997943754177E-008                       0      0.0484034828841686       0.996111154556274                       0                       0                       0                       4 
                 0.5201      0.0125031257814454        1.95016989266697        1.74184434582175      -0.019657096388825        7.36259756018456        2.63384398997507        1.89080028644913   1.01383569983682E-007                       0                       0                       0                       0   7.46837685028368E-008   2.66997943754177E-008                       0      0.0484034828841686       0.996111154556274                       0                       0                       0                       4 
                 0.5201      0.0127531882970743         1.9503240509328        1.74235791606255     -0.0201198730102787        7.36314862366875        2.63390379136291        1.89069372246864   1.01383569983682E-007                       0                       0                       0                       0   7.46837685028368E-008   2.66997943754177E-008                       0      0.0484034828841686       0.996111154556274                       0                       0                       0                       4 
                 0.5201      0.0130032508127032        1.95047820919863        1.74287148630335     -0.0205826496317324        7.36369968715294        2.63396359275076        1.89058715848815   1.01383569983682E-007                       0                       0                       0                       0   7.46837685028368E-008   2.66997943754177E-008                       0      0.0484034828841686       0.996111154556274                       0                       0                       0                       4 
                 0.5201      0.0132533133283321        1.95063236746446        1.74338505654416      -0.021045426253186        7.36425075063713         2.6340233941386        1.89048059450767   1.01383569983682E-007                       0                       0                       0                       0   7.46837685028368E-008   2.66997943754177E-008                       0      0.0484034828841686       0.996111154556274                       0                       0                       0                       4 
                 0.5201       0.013503375843961        1.95044538666212        1.74263641140898     -0.0214347393649544        7.36365895252908          2.634022233265        1.89066102850505   6.08610434937873E-007   6.68285963456583E-007   6.68285963456583E-007                       0   6.34871666349568E-009   4.77135870369239E-007   1.25125822592054E-007                       0     0.00958326365798712       0.996705234050751                       1                       0                       0                       4 