VARIABLES = "x"
 "y"
 "rho"
 "rhoU"
 "rhoV"
 "rhoE"
 "P"
 "T"
 "ABV"
 "error"
 "error_hMLP"
 "error_BD"
 "ABV_P"
 "ABV_I"
 "ABV_I_BD"
 "ABV_D"
 "Ducros"
 "Sk"
 "trouble_vertex"
 "trouble_face"
 "hMLP_penalty"
 "BD_penalty"
ZONE
DT=(DOUBLE,DOUBLE,DOUBLE,DOUBLE,DOUBLE,DOUBLE,DOUBLE,DOUBLE,DOUBLE,DOUBLE,DOUBLE,DOUBLE,DOUBLE,DOUBLE,DOUBLE,DOUBLE,DOUBLE,DOUBLE,DOUBLE,DOUBLE,DOUBLE,DOUBLE)
                 1.0501                       0        1.87467503496704        1.83529947161346   -3.3245467336443E-005         7.1054078339746        2.48281304869479        1.85415502040535    6.2103305861333E-037                       0                       0                       0                       0    6.2103305861333E-037                       0                       0        0.94302362203598       0.998002052307129                       0                       0                       0                       3 
                 1.0501    0.000250062515628907        1.87468988731739        1.83557602271577    0.000932133183441276        7.10566544721972        2.48281025836587        1.85413827920269    6.2103305861333E-037                       0                       0                       0                       0    6.2103305861333E-037                       0                       0        0.94302362203598       0.998002052307129                       0                       0                       0                       3 
                 1.0501    0.000500125031257815        1.87470519761737        1.83585343247363     0.00190088509674953        7.10592586540635        2.48280832669251        1.85412175266392    6.2103305861333E-037                       0                       0                       0                       0    6.2103305861333E-037                       0                       0        0.94302362203598       0.998002052307129                       0                       0                       0                       3 
                 1.0501    0.000750187546886722        1.87472050791736         1.8361308422315     0.00286963701005779        7.10618628359297        2.48280639501915        1.85410522612516    6.2103305861333E-037                       0                       0                       0                       0    6.2103305861333E-037                       0                       0        0.94302362203598       0.998002052307129                       0                       0                       0                       3 
                 1.0501     0.00100025006251563        1.87476014524368        1.83638523489671     0.00382825775108713        7.10639852934836        2.48279847574482         1.8540600991692    6.2103305861333E-037                       0                       0                       0                       0    6.2103305861333E-037                       0                       0        0.94302362203598       0.998002052307129                       0                       0                       0                       3 
                 1.0501     0.00125031257814454        1.87481258659829        1.83662944849012     0.00478688538085788        7.10659098125001        2.48278881737801        1.85400100427301    6.2103305861333E-037                       0                       0                       0                       0    6.2103305861333E-037                       0                       0        0.94302362203598       0.998002052307129                       0                       0                       0                       3 
                 1.0501     0.00150037509377344         1.8748650279529        1.83687366208354     0.00574551301062863        7.10678343315166         2.4827791590112        1.85394190937681    6.2103305861333E-037                       0                       0                       0                       0    6.2103305861333E-037                       0                       0        0.94302362203598       0.998002052307129                       0                       0                       0                       3 
                 1.0501     0.00175043760940235        1.87492954870326        1.83710603596559     0.00669792444226807        7.10695076759372        2.48276619319101        1.85386844623127    6.2103305861333E-037                       0                       0                       0                       0    6.2103305861333E-037                       0                       0        0.94302362203598       0.998002052307129                       0                       0                       0                       3 
                 1.0501     0.00200050012503126        1.87501908474733        1.83731694722431     0.00764587944287097        7.10707479705722        2.48274873537293        1.85376689579417    6.2103305861333E-037                       0                       0                       0                       0    6.2103305861333E-037                       0                       0        0.94302362203598       0.998002052307129                       0                       0                       0                       3 
                 1.0501     0.00225056264066016        1.87510869294082        1.83752800045449     0.00859438303732529        7.10719928269129        2.48273142185371        1.85366537561328    6.2103305861333E-037                       0                       0                       0                       0    6.2103305861333E-037                       0                       0        0.94302362203598       0.998002052307129                       0                       0                       0                       3 
                 1.0501     0.00250062515628907        1.87513509225594        1.83751962747756     0.00946190761475768        7.10685576292068        2.48260097524809        1.85354181094831   5.75425207482994E-010                       0                       0                       0                       0   5.75425207482994E-010                       0                       0       0.977181196212769       0.997010350227356                       0                       0                       0                       4 
                 1.0501     0.00275068767191798        1.87520662094362        1.83769386724876      0.0104214367968697        7.10698578415361        2.48259616261416        1.85346751708506   5.75425207482994E-010                       0                       0                       0                       0   5.75425207482994E-010                       0                       0       0.977181196212769       0.997010350227356                       0                       0                       0                       4 
                 1.0501     0.00300075018754689        1.87528274317215        1.83787440713945       0.011388381707603        7.10714117652238        2.48259988287345        1.85339504357237   5.75425207482994E-010                       0                       0                       0                       0   5.75425207482994E-010                       0                       0       0.977181196212769       0.997010350227356                       0                       0                       0                       4 
                 1.0501     0.00325081270317579        1.87535886540069        1.83805494703015      0.0123553266183362        7.10729656889115        2.48260360313274        1.85332257005968   5.75425207482994E-010                       0                       0                       0                       0   5.75425207482994E-010                       0                       0       0.977181196212769       0.997010350227356                       0                       0                       0                       4 
                 1.0501      0.0035008752188047        1.87538387879187        1.83819074232084      0.0132827482993741        7.10730803337308        2.48255717798301        1.85326319621656   5.75425207482994E-010                       0                       0                       0                       0   5.75425207482994E-010                       0                       0       0.977181196212769       0.997010350227356                       0                       0                       0                       4 
                 1.0501     0.00375093773443361        1.87539063964769        1.83831394013807      0.0142018409837473        7.10728671342562          2.482498870073        1.85321300848788   5.75425207482994E-010                       0                       0                       0                       0   5.75425207482994E-010                       0                       0       0.977181196212769       0.997010350227356                       0                       0                       0                       4 
                 1.0501     0.00400100025006252        1.87539740050351         1.8384371379553      0.0151209336681205        7.10726539347815        2.48244056216298         1.8531628207592   5.75425207482994E-010                       0                       0                       0                       0   5.75425207482994E-010                       0                       0       0.977181196212769       0.997010350227356                       0                       0                       0                       4 
                 1.0501     0.00425106276569142        1.87537682824146        1.83853565872175      0.0160175812465766        7.10716289512862        2.48235410016341        1.85311862119557   5.75425207482994E-010                       0                       0                       0                       0   5.75425207482994E-010                       0                       0       0.977181196212769       0.997010350227356                       0                       0                       0                       4 
                 1.0501     0.00450112528132033         1.8753134332742        1.83860059461468       0.016887655759137        7.10696100430882        2.48223249276423        1.85309046854388   5.75425207482994E-010                       0                       0                       0                       0   5.75425207482994E-010                       0                       0       0.977181196212769       0.997010350227356                       0                       0                       0                       4 
                 1.0501     0.00475118779694924        1.87525076117884        1.83866652193873      0.0177588972629274        7.10676311502144        2.48211222816116        1.85306260235536   5.75425207482994E-010                       0                       0                       0                       0   5.75425207482994E-010                       0                       0       0.977181196212769       0.997010350227356                       0                       0                       0                       4 
                 1.0501     0.00500125031257814        1.87512315080712        1.83865160152854      0.0185344092550573        7.10621333136653        2.48187082760313        1.85300844433146   4.61709229876428E-012                       0                       0                       0                       0   4.61709229876428E-012                       0                       0       0.984692931175232       0.996267139911652                       0                       0                       0                       4 
                 1.0501     0.00525131282820705         1.8749906987017        1.83837206271475      0.0193610702575709        7.10560096532283        2.48170653379639        1.85301669699642   4.61709229876428E-012                       0                       0                       0                       0   4.61709229876428E-012                       0                       0       0.984692931175232       0.996267139911652                       0                       0                       0                       4 
                 1.0501     0.00550137534383596        1.87487054148101        1.83810935517418      0.0202039230579763        7.10505637659766        2.48156502085651         1.8530298252191   4.61709229876428E-012                       0                       0                       0                       0   4.61709229876428E-012                       0                       0       0.984692931175232       0.996267139911652                       0                       0                       0                       4 
                 1.0501     0.00575143785946487        1.87475038426031        1.83784664763361      0.0210467758583817        7.10451178787249        2.48142350791662        1.85304295344178   4.61709229876428E-012                       0                       0                       0                       0   4.61709229876428E-012                       0                       0       0.984692931175232       0.996267139911652                       0                       0                       0                       4 
                 1.0501     0.00600150037509377        1.87456189332911        1.83748373252606      0.0217794441897258        7.10354243180452        2.48113849902117        1.85301642114766   4.61709229876428E-012                       0                       0                       0                       0   4.61709229876428E-012                       0                       0       0.984692931175232       0.996267139911652                       0                       0                       0                       4 
                 1.0501     0.00625156289072268        1.87435863839371        1.83709736213584      0.0224828353350417        7.10246827847822        2.48081791283127        1.85297789500098   4.61709229876428E-012                       0                       0                       0                       0   4.61709229876428E-012                       0                       0       0.984692931175232       0.996267139911652                       0                       0                       0                       4 
                 1.0501     0.00650162540635159        1.87415538345832        1.83671099174563      0.0231862264803576        7.10139412515193        2.48049732664137         1.8529393688543   4.61709229876428E-012                       0                       0                       0                       0   4.61709229876428E-012                       0                       0       0.984692931175232       0.996267139911652                       0                       0                       0                       4 
                 1.0501     0.00675168792198049        1.87391329403741        1.83626807842462      0.0238282660149054        7.10008158917266        2.48009627415169        1.85287912070777   4.61709229876428E-012                       0                       0                       0                       0   4.61709229876428E-012                       0                       0       0.984692931175232       0.996267139911652                       0                       0                       0                       4 
                 1.0501      0.0070017504376094        1.87362503836025        1.83575545019762      0.0243897341455962        7.09846770036647         2.4795932897499         1.8527882725815   4.61709229876428E-012                       0                       0                       0                       0   4.61709229876428E-012                       0                       0       0.984692931175232       0.996267139911652                       0                       0                       0                       4 
                 1.0501     0.00725181295323831         1.8733386497784        1.83524538090102      0.0249536639509429        7.09686412462988        2.47909377311775        1.85269816355856   4.61709229876428E-012                       0                       0                       0                       0   4.61709229876428E-012                       0                       0       0.984692931175232       0.996267139911652                       0                       0                       0                       4 
                 1.0501     0.00750187546886722        1.87314486438744        1.83485772925022      0.0256436371442909        7.09575230132539        2.47876005826462        1.85264046735508   8.83969286658015E-012                       0                       0                       0                       0   8.83969286658015E-012                       0                       0       0.943647742271423       0.996063649654388                       0                       0                       0                       4 
                 1.0501     0.00775193798449612        1.87272001775182        1.83420157065493      0.0259927870630587        7.09339038498069        2.47798887235422        1.85248417531026   8.83969286658015E-012                       0                       0                       0                       0   8.83969286658015E-012                       0                       0       0.943647742271423       0.996063649654388                       0                       0                       0                       4 
                 1.0501     0.00800200050012503        1.87230685457125        1.83356136446942      0.0263557770752458        7.09109283997969        2.47723931206975        1.85233250328553   8.83969286658015E-012                       0                       0                       0                       0   8.83969286658015E-012                       0                       0       0.943647742271423       0.996063649654388                       0                       0                       0                       4 
                 1.0501     0.00825206301575394        1.87189369139069        1.83292115828391       0.026718767087433        7.08879529497869        2.47648975178528        1.85218083126081   8.83969286658015E-012                       0                       0                       0                       0   8.83969286658015E-012                       0                       0       0.943647742271423       0.996063649654388                       0                       0                       0                       4 
                 1.0501     0.00850212553138285        1.87140130234299        1.83218422578405      0.0269632094464773          7.086059834551        2.47558834358394        1.85199376135826   8.83969286658015E-012                       0                       0                       0                       0   8.83969286658015E-012                       0                       0       0.943647742271423       0.996063649654388                       0                       0                       0                       4 
                 1.0501     0.00875218804701175        1.87088840679202        1.83142482700796      0.0271714681845042        7.08321054201186        2.47464647304013        1.85179662316734   8.83969286658015E-012                       0                       0                       0                       0   8.83969286658015E-012                       0                       0       0.943647742271423       0.996063649654388                       0                       0                       0                       4 
                 1.0501     0.00900225056264066        1.87037551124105        1.83066542823186      0.0273797269225311        7.08036124947271        2.47370460249632        1.85159948497642   8.83969286658015E-012                       0                       0                       0                       0   8.83969286658015E-012                       0                       0       0.943647742271423       0.996063649654388                       0                       0                       0                       4 
                 1.0501     0.00925231307826957        1.86981823962426        1.82985128840486      0.0275229145753596        7.07726692068497        2.47267799840113        1.85138265811075   8.83969286658015E-012                       0                       0                       0                       0   8.83969286658015E-012                       0                       0       0.943647742271423       0.996063649654388                       0                       0                       0                       4 
                 1.0501     0.00950237559389847        1.86920382839959        1.82897032628957      0.0275744114805818        7.07385673570733        2.47154071659647         1.8511392612972   8.83969286658015E-012                       0                       0                       0                       0   8.83969286658015E-012                       0                       0       0.943647742271423       0.996063649654388                       0                       0                       0                       4 
                 1.0501     0.00975243810952738        1.86859113031204         1.8280917012063      0.0276279377171843        7.07045598945635        2.47040660986086         1.8508965501503   8.83969286658015E-012                       0                       0                       0                       0   8.83969286658015E-012                       0                       0       0.943647742271423       0.996063649654388                       0                       0                       0                       4 
                 1.0501      0.0100025006251563        1.86814447146768        1.82738646077901      0.0278945146405478          7.067908489908        2.46957649715824        1.85071723266626   3.85178651127194E-012                       0                       0                       0                       0   3.85178651127194E-012                       0                       0        0.99983274936676       0.997956335544586                       0                       0                       0                       4 
                 1.0501      0.0102525631407852        1.86737778285774        1.82632323190835      0.0277253831951856        7.06368976099342        2.46815926490551        1.85041422532155   3.85178651127194E-012                       0                       0                       0                       0   3.85178651127194E-012                       0                       0        0.99983274936676       0.997956335544586                       0                       0                       0                       4 
                 1.0501      0.0105026256564141        1.86660686643523        1.82525465897099      0.0275492912947874         7.0594480930562        2.46673419096742         1.8501095575488   3.85178651127194E-012                       0                       0                       0                       0   3.85178651127194E-012                       0                       0        0.99983274936676       0.997956335544586                       0                       0                       0                       4 
                 1.0501       0.010752688172043        1.86583595001273        1.82418608603363      0.0273731993943893        7.05520642511897        2.46530911702932        1.84980488977606   3.85178651127194E-012                       0                       0                       0                       0   3.85178651127194E-012                       0                       0        0.99983274936676       0.997956335544586                       0                       0                       0                       4 
                 1.0501      0.0110027506876719         1.8650880938061         1.8231490086417      0.0272163267536903        7.05109313526455        2.46392725571883        1.84950922976991   3.85178651127194E-012                       0                       0                       0                       0   3.85178651127194E-012                       0                       0        0.99983274936676       0.997956335544586                       0                       0                       0                       4 
                 1.0501      0.0112528132033008        1.86434479315447        1.82211885453584       0.027058065939807        7.04700614426162        2.46255405078044        1.84921536505779   3.85178651127194E-012                       0                       0                       0                       0   3.85178651127194E-012                       0                       0        0.99983274936676       0.997956335544586                       0                       0                       0                       4 
                 1.0501      0.0115028757189297        1.86360149250284        1.82108870042998      0.0268998051259236        7.04291915325868        2.46118084584205        1.84892150034567   3.85178651127194E-012                       0                       0                       0                       0   3.85178651127194E-012                       0                       0        0.99983274936676       0.997956335544586                       0                       0                       0                       4 
                 1.0501      0.0117529382345586        1.86287148336416        1.82007651516614       0.026753852382616          7.038905864127        2.45983252083877        1.84863285597707   3.85178651127194E-012                       0                       0                       0                       0   3.85178651127194E-012                       0                       0        0.99983274936676       0.997956335544586                       0                       0                       0                       4 
                 1.0501      0.0120030007501875        1.86215646684242        1.81908549851071      0.0266144057501298        7.03497693131291        2.45851250255591        1.84835006645991   3.85178651127194E-012                       0                       0                       0                       0   3.85178651127194E-012                       0                       0        0.99983274936676       0.997956335544586                       0                       0                       0                       4 
                 1.0501      0.0122530632658165        1.86144085350512        1.81809372746463      0.0264739765816945        7.03104476033116        2.45719138124757        1.84806704058014   3.85178651127194E-012                       0                       0                       0                       0   3.85178651127194E-012                       0                       0        0.99983274936676       0.997956335544586                       0                       0                       0                       4 
                 1.0501      0.0125031257814454        1.86068152682938        1.81704526855021      0.0262508066557532        7.02686245110353        2.45578442989219        1.84776289074015   1.25704969437118E-012                       0                       0                       0                       0   1.25704969437118E-012                       0                       0       0.996734917163849       0.996300876140594                       0                       0                       0                       4 
                 1.0501      0.0127531882970743        1.86004724786503         1.8161757212078      0.0261967521661308        7.02338347511805         2.4546118007602        1.84751015070719   1.25704969437118E-012                       0                       0                       0                       0   1.25704969437118E-012                       0                       0       0.996734917163849       0.996300876140594                       0                       0                       0                       4 
                 1.0501      0.0130032508127032         1.8594034999211        1.81529387666937      0.0261291620526903        7.01985309213953        2.45342167550491        1.84725366744658   1.25704969437118E-012                       0                       0                       0                       0   1.25704969437118E-012                       0                       0       0.996734917163849       0.996300876140594                       0                       0                       0                       4 
                 1.0501      0.0132533133283321        1.85875975197718        1.81441203213094      0.0260615719392497        7.01632270916101        2.45223155024961        1.84699718418598   1.25704969437118E-012                       0                       0                       0                       0   1.25704969437118E-012                       0                       0       0.996734917163849       0.996300876140594                       0                       0                       0                       4 
                 1.0501       0.013503375843961        1.85818808833017        1.81362815957643      0.0260773391263149        7.01319103685961        2.45117590352201        1.84677002284981   1.25704969437118E-012                       0                       0                       0                       0   1.25704969437118E-012                       0                       0       0.996734917163849       0.996300876140594                       0                       0                       0                       4 