VARIABLES = "x"
 "y"
 "rho"
 "rhoU"
 "rhoV"
 "rhoE"
 "P"
 "T"
 "ABV"
 "error"
 "error_hMLP"
 "error_BD"
 "ABV_P"
 "ABV_I"
 "ABV_I_BD"
 "ABV_D"
 "Ducros"
 "Sk"
 "trouble_vertex"
 "trouble_face"
 "hMLP_penalty"
 "BD_penalty"
ZONE
DT=(DOUBLE,DOUBLE,DOUBLE,DOUBLE,DOUBLE,DOUBLE,DOUBLE,DOUBLE,DOUBLE,DOUBLE,DOUBLE,DOUBLE,DOUBLE,DOUBLE,DOUBLE,DOUBLE,DOUBLE,DOUBLE,DOUBLE,DOUBLE,DOUBLE,DOUBLE)
                 0.5201                       0        1.94700906551426        1.71698980859886   5.22635383209442E-005        7.35235980400657        2.63811499708541        1.89694078770064   9.41248951372988E-016                       0                       0                       0                       0    7.6131220714054E-016   1.79936770702228E-016                       0       0.115794897079468       0.997317969799042                       0                       0                       0                       3 
                 0.5201    0.000250062515628907        1.94705770054908        1.71726651720914   -0.000131229877565813        7.35256210069869        2.63810583966471        1.89688682277421   9.41248951372988E-016                       0                       0                       0                       0    7.6131220714054E-016   1.79936770702228E-016                       0       0.115794897079468       0.997317969799042                       0                       0                       0                       3 
                 0.5201    0.000500125031257815        1.94710277292753        1.71754285381513   -0.000275211289565048         7.3527714368564        2.63809911457967        1.89683806590767   9.41248951372988E-016                       0                       0                       0                       0    7.6131220714054E-016   1.79936770702228E-016                       0       0.115794897079468       0.997317969799042                       0                       0                       0                       3 
                 0.5201    0.000750187546886722        1.94714784530598        1.71781919042113   -0.000419192701564284        7.35298077301411        2.63809238949463        1.89678930904114   9.41248951372988E-016                       0                       0                       0                       0    7.6131220714054E-016   1.79936770702228E-016                       0       0.115794897079468       0.997317969799042                       0                       0                       0                       3 
                 0.5201     0.00100025006251563        1.94723568740298        1.71826971858019   -0.000598210561473008        7.35332551414782        2.63808482713679        1.89669832905605   9.41248951372988E-016                       0                       0                       0                       0    7.6131220714054E-016   1.79936770702228E-016                       0       0.115794897079468       0.997317969799042                       0                       0                       0                       3 
                 0.5201     0.00125031257814454        1.94733949696034        1.71880643760108   -0.000735487042780642        7.35374833598379        2.63808053452931         1.8965941617814   9.41248951372988E-016                       0                       0                       0                       0    7.6131220714054E-016   1.79936770702228E-016                       0       0.115794897079468       0.997317969799042                       0                       0                       0                       3 
                 0.5201     0.00150037509377344         1.9474433065177        1.71934315662197   -0.000872763524088277        7.35417115781976        2.63807624192184        1.89648999450675   9.41248951372988E-016                       0                       0                       0                       0    7.6131220714054E-016   1.79936770702228E-016                       0       0.115794897079468       0.997317969799042                       0                       0                       0                       3 
                 0.5201     0.00175043760940235        1.94756976494234        1.71996743928583    -0.00104088708287059        7.35465945765662        2.63807065509346        1.89636285480962   9.41248951372988E-016                       0                       0                       0                       0    7.6131220714054E-016   1.79936770702228E-016                       0       0.115794897079468       0.997317969799042                       0                       0                       0                       3 
                 0.5201     0.00200050012503126        1.94773288813559        1.72076463936165    -0.00117787741065835        7.35529432621731         2.6380683189861        1.89620235485567   9.41248951372988E-016                       0                       0                       0                       0    7.6131220714054E-016   1.79936770702228E-016                       0       0.115794897079468       0.997317969799042                       0                       0                       0                       3 
                 0.5201     0.00225056264066016        1.94789543489457        1.72156177668052    -0.00130844895549835        7.35593034764657        2.63806638731247        1.89604270560714   9.41248951372988E-016                       0                       0                       0                       0    7.6131220714054E-016   1.79936770702228E-016                       0       0.115794897079468       0.997317969799042                       0                       0                       0                       3 
                 0.5201     0.00250062515628907        1.94805209220654        1.72195428091971    -0.00157286487282813        7.35624763751114        2.63807919063025        1.89589941479154    6.9888994765066E-012                       0                       0                       0                       0   6.98810627419721E-012   7.93121100106577E-016                       0      0.0215124972164631       0.996467411518097                       0                       0                       0                       4 
                 0.5201     0.00275068767191798        1.94823042869892        1.72280552575572    -0.00179569280033648        7.35689619038533         2.6380651814284         1.8957158590117    6.9888994765066E-012                       0                       0                       0                       0   6.98810627419721E-012   7.93121100106577E-016                       0      0.0215124972164631       0.996467411518097                       0                       0                       0                       4 
                 0.5201     0.00300075018754689        1.94839751842141        1.72361385940147    -0.00200513750157114        7.35752176629349        2.63805552306294        1.89554633681198    6.9888994765066E-012                       0                       0                       0                       0   6.98810627419721E-012   7.93121100106577E-016                       0      0.0215124972164631       0.996467411518097                       0                       0                       0                       4 
                 0.5201     0.00325081270317579        1.94856460814391        1.72442219304721    -0.00221458220280579        7.35814734220165        2.63804586469748        1.89537681461225    6.9888994765066E-012                       0                       0                       0                       0   6.98810627419721E-012   7.93121100106577E-016                       0      0.0215124972164631       0.996467411518097                       0                       0                       0                       4 
                 0.5201      0.0035008752188047        1.94868900332436        1.72510565554472    -0.00248742225308023        7.35866928328587        2.63803194331436        1.89524582150367    6.9888994765066E-012                       0                       0                       0                       0   6.98810627419721E-012   7.93121100106577E-016                       0      0.0215124972164631       0.996467411518097                       0                       0                       0                       4 
                 0.5201     0.00375093773443361        1.94877549935283        1.72566312209051    -0.00277138630220144        7.35910584140476        2.63802249957924        1.89515492555315    6.9888994765066E-012                       0                       0                       0                       0   6.98810627419721E-012   7.93121100106577E-016                       0      0.0215124972164631       0.996467411518097                       0                       0                       0                       4 
                 0.5201     0.00400100025006252         1.9488619953813         1.7262205886363    -0.00305535035132265        7.35954239952366        2.63801305584412        1.89506402960264    6.9888994765066E-012                       0                       0                       0                       0   6.98810627419721E-012   7.93121100106577E-016                       0      0.0215124972164631       0.996467411518097                       0                       0                       0                       4 
                 0.5201     0.00425106276569142        1.94893082872586         1.7267298480678    -0.00337582851954799        7.35993457762505        2.63799999022748        1.89498772981035    6.9888994765066E-012                       0                       0                       0                       0   6.98810627419721E-012   7.93121100106577E-016                       0      0.0215124972164631       0.996467411518097                       0                       0                       0                       4 
                 0.5201     0.00450112528132033        1.94893849665387        1.72704323069344    -0.00373641597087918        7.36018544355686        2.63799014430432        1.89497324976197    6.9888994765066E-012                       0                       0                       0                       0   6.98810627419721E-012   7.93121100106577E-016                       0      0.0215124972164631       0.996467411518097                       0                       0                       0                       4 
                 0.5201     0.00475118779694924        1.94894439899162        1.72734986608235    -0.00409489977780529        7.36043269785086        2.63798098673788         1.8949609800538    6.9888994765066E-012                       0                       0                       0                       0   6.98810627419721E-012   7.93121100106577E-016                       0      0.0215124972164631       0.996467411518097                       0                       0                       0                       4 
                 0.5201     0.00500125031257814        1.94881869792744        1.72770490895277    -0.00463568394172757        7.36070847864345        2.63794546258126        1.89505761302531    4.0615063802386E-014                       0                       0                       0                       0   3.95065483961825E-014   1.10851815906057E-015                       0      0.0382202230393887       0.996639847755432                       0                       0                       0                       4 
                 0.5201     0.00525131282820705        1.94882509270358        1.72786133471972    -0.00506806465589375        7.36083411502373        2.63794071310667        1.89504795526093    4.0615063802386E-014                       0                       0                       0                       0   3.95065483961825E-014   1.10851815906057E-015                       0      0.0382202230393887       0.996639847755432                       0                       0                       0                       4 
                 0.5201     0.00550137534383596        1.94881733023948        1.72795444851712    -0.00547649166751207        7.36090623081918        2.63793491808739        1.89505128203126    4.0615063802386E-014                       0                       0                       0                       0   3.95065483961825E-014   1.10851815906057E-015                       0      0.0382202230393887       0.996639847755432                       0                       0                       0                       4 
                 0.5201     0.00575143785946487        1.94880956777539        1.72804756231452    -0.00588491867913039        7.36097834661464        2.63792912306811        1.89505460880158    4.0615063802386E-014                       0                       0                       0                       0   3.95065483961825E-014   1.10851815906057E-015                       0      0.0382202230393887       0.996639847755432                       0                       0                       0                       4 
                 0.5201     0.00600150037509377        1.94884681379689        1.72825876261285    -0.00640473114465321        7.36115512195017        2.63792998743104        1.89501904165776    4.0615063802386E-014                       0                       0                       0                       0   3.95065483961825E-014   1.10851815906057E-015                       0      0.0382202230393887       0.996639847755432                       0                       0                       0                       4 
                 0.5201     0.00625156289072268        1.94888466028082        1.72843211238704     -0.0069427171920963        7.36130235836588        2.63793256299516         1.8949841284552    4.0615063802386E-014                       0                       0                       0                       0   3.95065483961825E-014   1.10851815906057E-015                       0      0.0382202230393887       0.996639847755432                       0                       0                       0                       4 
                 0.5201     0.00650162540635159        1.94892250676474        1.72860546216122    -0.00748070323953939         7.3614495947816        2.63793513855929        1.89494921525264    4.0615063802386E-014                       0                       0                       0                       0   3.95065483961825E-014   1.10851815906057E-015                       0      0.0382202230393887       0.996639847755432                       0                       0                       0                       4 
                 0.5201     0.00675168792198049        1.94898802264724        1.72886061606789    -0.00808335908510302        7.36166839460943        2.63794136283485        1.89489002595324    4.0615063802386E-014                       0                       0                       0                       0   3.95065483961825E-014   1.10851815906057E-015                       0      0.0382202230393887       0.996639847755432                       0                       0                       0                       4 
                 0.5201      0.0070017504376094        1.94907355636033        1.72912388743145    -0.00875454206106209        7.36189887029259        2.63795231608561        1.89481474936541    4.0615063802386E-014                       0                       0                       0                       0   3.95065483961825E-014   1.10851815906057E-015                       0      0.0382202230393887       0.996639847755432                       0                       0                       0                       4 
                 0.5201     0.00725181295323831        1.94915694029542        1.72937754486761    -0.00942208765708336        7.36212122745282        2.63796311915227        1.89474145306211    4.0615063802386E-014                       0                       0                       0                       0   3.95065483961825E-014   1.10851815906057E-015                       0      0.0382202230393887       0.996639847755432                       0                       0                       0                       4 
                 0.5201     0.00750187546886722        1.94921162592339         1.7287999458226    -0.00980644876078094        7.36177076460064        2.63803596569029        1.89474058735034   1.91111033248648E-011                       0                       0                       0                       0   1.91054255749279E-011   5.67782955796913E-015                       0      0.0135145578533411       0.997215807437897                       0                       0                       0                       4 
                 0.5201     0.00775193798449612         1.9494451677328        1.72977088019642     -0.0106718262901069        7.36254339894662        2.63803484064028        1.89451294251035   1.91111033248648E-011                       0                       0                       0                       0   1.91054255749279E-011   5.67782955796913E-015                       0      0.0135145578533411       0.997215807437897                       0                       0                       0                       4 
                 0.5201     0.00800200050012503        1.94966802544838        1.73072562697471     -0.0115260911904227        7.36329632177126        2.63803026186218         1.8942930896179   1.91111033248648E-011                       0                       0                       0                       0   1.91054255749279E-011   5.67782955796913E-015                       0      0.0135145578533411       0.997215807437897                       0                       0                       0                       4 
                 0.5201     0.00825206301575394        1.94989088316396        1.73168037375301     -0.0123803560907385         7.3640492445959        2.63802568308407        1.89407323672545   1.91111033248648E-011                       0                       0                       0                       0   1.91054255749279E-011   5.67782955796913E-015                       0      0.0135145578533411       0.997215807437897                       0                       0                       0                       4 
                 0.5201     0.00850212553138285        1.95013353923995        1.73265036298496     -0.0132667802506655        7.36481464428531        2.63802278894681        1.89383560551311   1.91111033248648E-011                       0                       0                       0                       0   1.91054255749279E-011   5.67782955796913E-015                       0      0.0135145578533411       0.997215807437897                       0                       0                       0                       4 
                 0.5201     0.00875218804701175        1.95036959711001        1.73360325123205     -0.0141519106286395        7.36555612140768        2.63801549150698        1.89360115737243   1.91111033248648E-011                       0                       0                       0                       0   1.91054255749279E-011   5.67782955796913E-015                       0      0.0135145578533411       0.997215807437897                       0                       0                       0                       4 
                 0.5201     0.00900225056264066        1.95060565498006        1.73455613947915     -0.0150370410066134        7.36629759853006        2.63800819406714        1.89336670923174   1.91111033248648E-011                       0                       0                       0                       0   1.91054255749279E-011   5.67782955796913E-015                       0      0.0135145578533411       0.997215807437897                       0                       0                       0                       4 
                 0.5201     0.00925231307826957         1.9508555328657        1.73552251666703     -0.0159424396538801        7.36705245440733        2.63800290593627        1.89312047488479   1.91111033248648E-011                       0                       0                       0                       0   1.91054255749279E-011   5.67782955796913E-015                       0      0.0135145578533411       0.997215807437897                       0                       0                       0                       4 
                 0.5201     0.00950237559389847        1.95110628330295        1.73647594799165     -0.0168600606813423        7.36778565653301        2.63799324842822        1.89287029312434   1.91111033248648E-011                       0                       0                       0                       0   1.91054255749279E-011   5.67782955796913E-015                       0      0.0135145578533411       0.997215807437897                       0                       0                       0                       4 
                 0.5201     0.00975243810952738        1.95135546913187        1.73742701081589     -0.0177760543606631        7.36851597204885        2.63798308925862        1.89262125038231   1.91111033248648E-011                       0                       0                       0                       0   1.91054255749279E-011   5.67782955796913E-015                       0      0.0135145578533411       0.997215807437897                       0                       0                       0                       4 
                 0.5201      0.0100025006251563        1.95166943283002        1.73833913279663      -0.018381929761501        7.36962144021471        2.63814825452408        1.89243504716874   3.93240728868705E-009   2.77146369853654E-007   2.77146369853654E-007                       0   2.63289035018488E-009   1.29947308469269E-009   2.01240781173449E-014   2.34182180483371E-014      0.0221393927931786       0.996616780757904                       1                       0                       0                       4 
                 0.5201      0.0102525631407852        1.95201657636739        1.73941290020541     -0.0194986893898767        7.37044731028463        2.63814596154793        1.89209715635067   3.93240728868705E-009   2.77146369853654E-007   2.77146369853654E-007                       0   2.63289035018488E-009   1.29947308469269E-009   2.01240781173449E-014   2.34182180483371E-014      0.0221393927931786       0.996616780757904                       1                       0                       0                       4 
                 0.5201      0.0105026256564141        1.95237626105155        1.74053956642244     -0.0206664724089061         7.3713144168728        2.63814352907071        1.89174680808646   3.93240728868705E-009   2.77146369853654E-007   2.77146369853654E-007                       0   2.63289035018488E-009   1.29947308469269E-009   2.01240781173449E-014   2.34182180483371E-014      0.0221393927931786       0.996616780757904                       1                       0                       0                       4 
                 0.5201       0.010752688172043        1.95273594573571        1.74166623263947     -0.0218342554279354        7.37218152346097        2.63814109659348        1.89139645982224   3.93240728868705E-009   2.77146369853654E-007   2.77146369853654E-007                       0   2.63289035018488E-009   1.29947308469269E-009   2.01240781173449E-014   2.34182180483371E-014      0.0221393927931786       0.996616780757904                       1                       0                       0                       4 
                 0.5201      0.0110027506876719        1.95307437229607        1.74270106435451     -0.0228858305002717        7.37296790751126        2.63813510123224         1.8910645782356   3.93240728868705E-009   2.77146369853654E-007   2.77146369853654E-007                       0   2.63289035018488E-009   1.29947308469269E-009   2.01240781173449E-014   2.34182180483371E-014      0.0221393927931786       0.996616780757904                       1                       0                       0                       4 
                 0.5201      0.0112528132033008        1.95342164419203        1.74377228439944     -0.0239593315515405        7.37377820860182        2.63812694527918        1.89072256478306   3.93240728868705E-009   2.77146369853654E-007   2.77146369853654E-007                       0   2.63289035018488E-009   1.29947308469269E-009   2.01240781173449E-014   2.34182180483371E-014      0.0221393927931786       0.996616780757904                       1                       0                       0                       4 
                 0.5201      0.0115028757189297        1.95376891608798        1.74484350444438     -0.0250328326028093        7.37458850969238        2.63811878932612        1.89038055133053   3.93240728868705E-009   2.77146369853654E-007   2.77146369853654E-007                       0   2.63289035018488E-009   1.29947308469269E-009   2.01240781173449E-014   2.34182180483371E-014      0.0221393927931786       0.996616780757904                       1                       0                       0                       4 
                 0.5201      0.0117529382345586        1.95410083548429        1.74584878525654     -0.0260286673530571          7.375342781564        2.63810915242455        1.89005258220644   3.93240728868705E-009   2.77146369853654E-007   2.77146369853654E-007                       0   2.63289035018488E-009   1.29947308469269E-009   2.01240781173449E-014   2.34182180483371E-014      0.0221393927931786       0.996616780757904                       1                       0                       0                       4 
                 0.5201      0.0120030007501875        1.95443399814481        1.74685703213245     -0.0270006928449091        7.37609074213784        2.63809568971148         1.8897208185764   3.93240728868705E-009   2.77146369853654E-007   2.77146369853654E-007                       0   2.63289035018488E-009   1.29947308469269E-009   2.01240781173449E-014   2.34182180483371E-014      0.0221393927931786       0.996616780757904                       1                       0                       0                       4 
                 0.5201      0.0122530632658165          1.954768928796        1.74787273446184     -0.0279799113694841        7.37684452390458        2.63808216799983        1.88938728302244   3.93240728868705E-009   2.77146369853654E-007   2.77146369853654E-007                       0   2.63289035018488E-009   1.29947308469269E-009   2.01240781173449E-014   2.34182180483371E-014      0.0221393927931786       0.996616780757904                       1                       0                       0                       4 
                 0.5201      0.0125031257814454        1.95523417422566        1.74931303881982      -0.028981650670059        7.37779117586282        2.63801456007219        1.88888912345499   8.62504295415234E-013                       0                       0                       0                       0   7.86037413543633E-013   7.64668683190736E-014                       0       0.109316274523735       0.994942128658295                       1                       0                       0                       4 
                 0.5201      0.0127531882970743        1.95553536135249        1.75015573601048     -0.0297101993151535        7.37846404988119         2.6380256585236        1.88860628300095   8.62504295415234E-013                       0                       0                       0                       0   7.86037413543633E-013   7.64668683190736E-014                       0       0.109316274523735       0.994942128658295                       1                       0                       0                       4 
                 0.5201      0.0130032508127032        1.95586632134233        1.75108104319349     -0.0304947492359448        7.37921110656383        2.63804146962558        1.88829796651236   8.62504295415234E-013                       0                       0                       0                       0   7.86037413543633E-013   7.64668683190736E-014                       0       0.109316274523735       0.994942128658295                       1                       0                       0                       4 
                 0.5201      0.0132533133283321        1.95619728133216        1.75200635037649     -0.0312792991567361        7.37995816324648        2.63805728072756        1.88798965002377   8.62504295415234E-013                       0                       0                       0                       0   7.86037413543633E-013   7.64668683190736E-014                       0       0.109316274523735       0.994942128658295                       1                       0                       0                       4 
                 0.5201       0.013503375843961        1.95649828643667        1.75280155226234      -0.031903413324877        7.38056855362371        2.63806073227278        1.88770176339125   8.62504295415234E-013                       0                       0                       0                       0   7.86037413543633E-013   7.64668683190736E-014                       0       0.109316274523735       0.994942128658295                       1                       0                       0                       4 