VARIABLES = "x"
 "y"
 "rho"
 "rhoU"
 "rhoV"
 "rhoE"
 "P"
 "T"
 "ABV"
 "error"
 "error_hMLP"
 "error_BD"
 "ABV_P"
 "ABV_I"
 "ABV_I_BD"
 "ABV_D"
 "Ducros"
 "Sk"
 "trouble_vertex"
 "trouble_face"
 "hMLP_penalty"
 "BD_penalty"
ZONE
DT=(DOUBLE,DOUBLE,DOUBLE,DOUBLE,DOUBLE,DOUBLE,DOUBLE,DOUBLE,DOUBLE,DOUBLE,DOUBLE,DOUBLE,DOUBLE,DOUBLE,DOUBLE,DOUBLE,DOUBLE,DOUBLE,DOUBLE,DOUBLE,DOUBLE,DOUBLE)
                 1.0501                       0        1.87539904863105        1.83737463619146   -1.3309474571654E-005        7.10942791133519        2.48374691159003        1.85413644885482   3.13628981351746E-037                       0                       0                       0                       0   3.13628981351746E-037                       0                       0       0.995228707790375       0.999571919441223                       0                       0                       0                       3 
                 1.0501    0.000250062515628907        1.87539703576614        1.83739408642323     0.00092693994609506        7.10942688062721        2.48373823078899        1.85413194634356   3.13628981351746E-037                       0                       0                       0                       0   3.13628981351746E-037                       0                       0       0.995228707790375       0.999571919441223                       0                       0                       0                       3 
                 1.0501    0.000500125031257815        1.87539555720128        1.83741378472288     0.00187102656157593        7.10942821610515        2.48373050409518        1.85412765373589   3.13628981351746E-037                       0                       0                       0                       0   3.13628981351746E-037                       0                       0       0.995228707790375       0.999571919441223                       0                       0                       0                       3 
                 1.0501    0.000750187546886722        1.87539958597633        1.83747340272704     0.00280680571250517        7.10944245149336        2.48371318078877        1.85411074464614   3.13628981351746E-037                       0                       0                       0                       0   3.13628981351746E-037                       0                       0       0.995228707790375       0.999571919441223                       0                       0                       0                       3 
                 1.0501     0.00100025006251563        1.87541131910396        1.83757489905065     0.00374119107605862        7.10948098957112        2.48369047766375        1.85408212726167   3.13628981351746E-037                       0                       0                       0                       0   3.13628981351746E-037                       0                       0       0.995228707790375       0.999571919441223                       0                       0                       0                       3 
                 1.0501     0.00125031257814454        1.87542306433545        1.83767643967555     0.00467555242708908        7.10951949402045        2.48366774532254        1.85405347618913   3.13628981351746E-037                       0                       0                       0                       0   3.13628981351746E-037                       0                       0       0.995228707790375       0.999571919441223                       0                       0                       0                       3 
                 1.0501     0.00150037509377344        1.87544708893219        1.83781606913367     0.00559533376521166        7.10954466546999        2.48362648841788        1.85399897167309   3.13628981351746E-037                       0                       0                       0                       0   3.13628981351746E-037                       0                       0       0.995228707790375       0.999571919441223                       0                       0                       0                       3 
                 1.0501     0.00175043760940235        1.87547284457822        1.83795748670863     0.00651816970387073         7.1095788155488        2.48358842729653        1.85394517099027   3.13628981351746E-037                       0                       0                       0                       0   3.13628981351746E-037                       0                       0       0.995228707790375       0.999571919441223                       0                       0                       0                       3 
                 1.0501     0.00200050012503126        1.87550369275251        1.83809543766043     0.00743160422319203        7.10957740971204        2.48353831735946        1.85387733674728   3.13628981351746E-037                       0                       0                       0                       0   3.13628981351746E-037                       0                       0       0.995228707790375       0.999571919441223                       0                       0                       0                       3 
                 1.0501     0.00225056264066016        1.87554423404719        1.83823504280104     0.00834104308980913        7.10956519962799        2.48348499363305        1.85379739885331   3.13628981351746E-037                       0                       0                       0                       0   3.13628981351746E-037                       0                       0       0.995228707790375       0.999571919441223                       0                       0                       0                       3 
                 1.0501     0.00250062515628907        1.87558981725593        1.83837787999666     0.00926778188800092        7.10957896634896        2.48344174609848         1.8537199976295   2.40544011376187E-008                       0                       0                       0                       0   2.40544011376187E-008                       0                       0        0.99244499206543       0.999613463878632                       0                       0                       0                       4 
                 1.0501     0.00275068767191798         1.8756102298684        1.83843450740112      0.0101538523752021        7.10942562564709        2.48336008778707        1.85363890874615   2.40544011376187E-008                       0                       0                       0                       0   2.40544011376187E-008                       0                       0        0.99244499206543       0.999613463878632                       0                       0                       0                       4 
                 1.0501     0.00300075018754689        1.87563202677218          1.838493220724      0.0110413507091212        7.10928024936102        2.48328100842936        1.85355835082385   2.40544011376187E-008                       0                       0                       0                       0   2.40544011376187E-008                       0                       0        0.99244499206543       0.999613463878632                       0                       0                       0                       4 
                 1.0501     0.00325081270317579        1.87563616514711        1.83854078328922      0.0119221293895433        7.10911769811365        2.48319593500633         1.8534907639066   2.40544011376187E-008                       0                       0                       0                       0   2.40544011376187E-008                       0                       0        0.99244499206543       0.999613463878632                       0                       0                       0                       4 
                 1.0501      0.0035008752188047        1.87562548132158         1.8385814676784      0.0127985205570398        7.10895305273095        2.48310979666301        1.85343701090941   2.40544011376187E-008                       0                       0                       0                       0   2.40544011376187E-008                       0                       0        0.99244499206543       0.999613463878632                       0                       0                       0                       4 
                 1.0501     0.00375093773443361        1.87561468194307         1.8386220007396      0.0136748618759899        7.10878822990487        2.48302362290264        1.85338334573973   2.40544011376187E-008                       0                       0                       0                       0   2.40544011376187E-008                       0                       0        0.99244499206543       0.999613463878632                       0                       0                       0                       4 
                 1.0501     0.00400100025006252        1.87557505824684        1.83862535780703      0.0145392074552488        7.10858686610587          2.482931438355        1.85335370233452   2.40544011376187E-008                       0                       0                       0                       0   2.40544011376187E-008                       0                       0        0.99244499206543       0.999613463878632                       0                       0                       0                       4 
                 1.0501     0.00425106276569142        1.87553666326315        1.83863069971781      0.0154043711916586         7.1083924587102        2.48284148439321        1.85332451260779   2.40544011376187E-008                       0                       0                       0                       0   2.40544011376187E-008                       0                       0        0.99244499206543       0.999613463878632                       0                       0                       0                       4 
                 1.0501     0.00450112528132033          1.875485552172        1.83860758002479      0.0162632913943311        7.10817106721958          2.482749277091        1.85330618058775   2.40544011376187E-008                       0                       0                       0                       0   2.40544011376187E-008                       0                       0        0.99244499206543       0.999613463878632                       0                       0                       0                       4 
                 1.0501     0.00475118779694924        1.87542421556651        1.83856031363595      0.0171171091051273        7.10793602305796         2.4826589415305        1.85329931241419   2.40544011376187E-008                       0                       0                       0                       0   2.40544011376187E-008                       0                       0        0.99244499206543       0.999613463878632                       0                       0                       0                       4 
                 1.0501     0.00500125031257814        1.87537984834074        1.83853571834297      0.0179945104944287        7.10779197377842        2.48259911213441        1.85329850407869   7.49638850994216E-010                       0                       0                       0                       0   7.49638850994216E-010                       0                       0       0.998345732688904       0.998406529426575                       0                       0                       0                       4 
                 1.0501     0.00525131282820705        1.87529240288767        1.83838949250093      0.0188244134068366        7.10741981161738        2.48248741025469        1.85330157192263   7.49638850994216E-010                       0                       0                       0                       0   7.49638850994216E-010                       0                       0       0.998345732688904       0.998406529426575                       0                       0                       0                       4 
                 1.0501     0.00550137534383596        1.87520416600151         1.8382416837927      0.0196526619060883        7.10704282548319        2.48237427625794        1.85330433826825   7.49638850994216E-010                       0                       0                       0                       0   7.49638850994216E-010                       0                       0       0.998345732688904       0.998406529426575                       0                       0                       0                       4 
                 1.0501     0.00575143785946487        1.87511731165652        1.83806899063651      0.0204754465335684         7.1066369504842        2.48225945362128        1.85330445863627   7.49638850994216E-010                       0                       0                       0                       0   7.49638850994216E-010                       0                       0       0.998345732688904       0.998406529426575                       0                       0                       0                       4 
                 1.0501     0.00600150037509377        1.87503928157364        1.83788121286372      0.0213012423049329        7.10624298441784        2.48215671719187        1.85330493559276   7.49638850994216E-010                       0                       0                       0                       0   7.49638850994216E-010                       0                       0       0.998345732688904       0.998406529426575                       0                       0                       0                       4 
                 1.0501     0.00625156289072268        1.87496094923759        1.83769293133565       0.022126543035202        7.10584707129261        2.48205334167883        1.85330523399931   7.49638850994216E-010                       0                       0                       0                       0   7.49638850994216E-010                       0                       0       0.998345732688904       0.998406529426575                       0                       0                       0                       4 
                 1.0501     0.00650162540635159        1.87484710339392         1.8374411720764      0.0228884646553246        7.10521025116899        2.48187170633736        1.85328211405431   7.49638850994216E-010                       0                       0                       0                       0   7.49638850994216E-010                       0                       0       0.998345732688904       0.998406529426575                       0                       0                       0                       4 
                 1.0501     0.00675168792198049        1.87474140983423        1.83720021365421      0.0236603509281489        7.10461806198256        2.48170524851997        1.85326222496839   7.49638850994216E-010                       0                       0                       0                       0   7.49638850994216E-010                       0                       0       0.998345732688904       0.998406529426575                       0                       0                       0                       4 
                 1.0501      0.0070017504376094        1.87458970997023        1.83690842487116       0.024362808124776        7.10376321678653        2.48144501159601         1.8532177985617   7.49638850994216E-010                       0                       0                       0                       0   7.49638850994216E-010                       0                       0       0.998345732688904       0.998406529426575                       0                       0                       0                       4 
                 1.0501     0.00725181295323831        1.87441862567482        1.83660121719157      0.0250293287455002        7.10279213335904        2.48114052256845        1.85315951447779   7.49638850994216E-010                       0                       0                       0                       0   7.49638850994216E-010                       0                       0       0.998345732688904       0.998406529426575                       0                       0                       0                       4 
                 1.0501     0.00750187546886722        1.87414972999831        1.83616997875548      0.0255721259383484        7.10129275953116        2.48065548402428         1.8530630660314   2.62949356732989E-010                       0                       0                       0                       0   2.62949356732989E-010                       0                       0        0.88008588552475       0.998394727706909                       0                       0                       0                       4 
                 1.0501     0.00775193798449612        1.87388847559117        1.83574774335747      0.0261223833653081        7.09982524871596        2.48018065449061        1.85296663634802   2.62949356732989E-010                       0                       0                       0                       0   2.62949356732989E-010                       0                       0        0.88008588552475       0.998394727706909                       0                       0                       0                       4 
                 1.0501     0.00800200050012503        1.87365414686429        1.83536260098631      0.0267092522510662         7.0985065593936        2.47975578164326         1.8528808795699   2.62949356732989E-010                       0                       0                       0                       0   2.62949356732989E-010                       0                       0        0.88008588552475       0.998394727706909                       0                       0                       0                       4 
                 1.0501     0.00825206301575394        1.87328385849303        1.83479889378909       0.027112701041873        7.09644246570493        2.47907761624419        1.85274025753942   2.62949356732989E-010                       0                       0                       0                       0   2.62949356732989E-010                       0                       0        0.88008588552475       0.998394727706909                       0                       0                       0                       4 
                 1.0501     0.00850212553138285        1.87282664833584        1.83412433471824      0.0274001215199024        7.09390391433772        2.47823702874051        1.85256421302762   2.62949356732989E-010                       0                       0                       0                       0   2.62949356732989E-010                       0                       0        0.88008588552475       0.998394727706909                       0                       0                       0                       4 
                 1.0501     0.00875218804701175        1.87236738909072        1.83344707928138      0.0276847707343068        7.09135410342009        2.47739261599447        1.85238733218745   2.62949356732989E-010                       0                       0                       0                       0   2.62949356732989E-010                       0                       0        0.88008588552475       0.998394727706909                       0                       0                       0                       4 
                 1.0501     0.00900225056264066        1.87170334048087        1.83250262144082      0.0276938300957104        7.08768014903159        2.47616548020524        1.85212653415298   2.62949356732989E-010                       0                       0                       0                       0   2.62949356732989E-010                       0                       0        0.88008588552475       0.998394727706909                       0                       0                       0                       4 
                 1.0501     0.00925231307826957        1.87105687412676        1.83158276382644      0.0277275523853983        7.08410355031814        2.47497089585339        1.85187269809451   2.62949356732989E-010                       0                       0                       0                       0   2.62949356732989E-010                       0                       0        0.88008588552475       0.998394727706909                       0                       0                       0                       4 
                 1.0501     0.00950237559389847        1.87031790903641        1.83054164927316      0.0276361842840473        7.08001710773116        2.47360286041911         1.8515802816253   2.62949356732989E-010                       0                       0                       0                       0   2.62949356732989E-010                       0                       0        0.88008588552475       0.998394727706909                       0                       0                       0                       4 
                 1.0501     0.00975243810952738        1.86951581069813        1.82942075297489      0.0274619549269322        7.07558388918166        2.47211570895406        1.85126100670846   2.62949356732989E-010                       0                       0                       0                       0   2.62949356732989E-010                       0                       0        0.88008588552475       0.998394727706909                       0                       0                       0                       4 
                 1.0501      0.0100025006251563        1.86883066549987          1.828431897442      0.0274292324975435        7.07176771850845        2.47084534616901        1.85098809633811   7.17391632210074E-011                       0                       0                       0                       0   7.17391632210074E-011                       0                       0       0.999914169311523       0.998511075973511                       0                       0                       0                       4 
                 1.0501      0.0102525631407852        1.86785615735066        1.82708290673345       0.027020505502658        7.06640210364014        2.46904266743014        1.85060235863715   7.17391632210074E-011                       0                       0                       0                       0   7.17391632210074E-011                       0                       0       0.999914169311523       0.998511075973511                       0                       0                       0                       4 
                 1.0501      0.0105026256564141        1.86687448622035        1.82572429716454      0.0266024459922433        7.06099704586285        2.46722670461721        1.85021383016433   7.17391632210074E-011                       0                       0                       0                       0   7.17391632210074E-011                       0                       0       0.999914169311523       0.998511075973511                       0                       0                       0                       4 
                 1.0501       0.010752688172043        1.86593028834025        1.82441322183476      0.0262334720037784        7.05579834367336        2.46548151436693        1.84984067975995   7.17391632210074E-011                       0                       0                       0                       0   7.17391632210074E-011                       0                       0       0.999914169311523       0.998511075973511                       0                       0                       0                       4 
                 1.0501      0.0110027506876719        1.86500036695128         1.8231181428239       0.025883544187681        7.05067812410373        2.46376409069282        1.84947370970473   7.17391632210074E-011                       0                       0                       0                       0   7.17391632210074E-011                       0                       0       0.999914169311523       0.998511075973511                       0                       0                       0                       4 
                 1.0501      0.0112528132033008        1.86407190158382        1.82182514698664      0.0255354666735485        7.04556599688145         2.4620493548108        1.84910730510507   7.17391632210074E-011                       0                       0                       0                       0   7.17391632210074E-011                       0                       0       0.999914169311523       0.998511075973511                       0                       0                       0                       4 
                 1.0501      0.0115028757189297        1.86324883362412        1.82068416530763      0.0253209805331024         7.0410407990618         2.4605291411148        1.84878168584547   7.17391632210074E-011                       0                       0                       0                       0   7.17391632210074E-011                       0                       0       0.999914169311523       0.998511075973511                       0                       0                       0                       4 
                 1.0501      0.0117529382345586        1.86241139278309        1.81952339541652      0.0250880087229276        7.03643644839375        2.45898237004323        1.84845039161596   7.17391632210074E-011                       0                       0                       0                       0   7.17391632210074E-011                       0                       0       0.999914169311523       0.998511075973511                       0                       0                       0                       4 
                 1.0501      0.0120030007501875         1.8616606183478         1.8184933272056        0.02496364185489        7.03231640291748        2.45759418272408        1.84815193804349   7.17391632210074E-011                       0                       0                       0                       0   7.17391632210074E-011                       0                       0       0.999914169311523       0.998511075973511                       0                       0                       0                       4 
                 1.0501      0.0122530632658165        1.86095644030057        1.81753779327184      0.0248964528941961        7.02845897242794        2.45629056619828        1.84787048622443   7.17391632210074E-011                       0                       0                       0                       0   7.17391632210074E-011                       0                       0       0.999914169311523       0.998511075973511                       0                       0                       0                       4 
                 1.0501      0.0125031257814454        1.86019195136573        1.81651350553121      0.0247554677950351        7.02428357945234        2.45487538736672        1.84756498277678   5.57634528830508E-011                       0                       0                       0                       0   5.57634528830508E-011                       0                       0       0.999575674533844       0.998440802097321                       0                       0                       0                       4 
                 1.0501      0.0127531882970743        1.85969307925522        1.81581585722814      0.0249443786882945        7.02153800809777        2.45395354811585        1.84736652901301   5.57634528830508E-011                       0                       0                       0                       0   5.57634528830508E-011                       0                       0       0.999575674533844       0.998440802097321                       0                       0                       0                       4 
                 1.0501      0.0130032508127032        1.85918426168533        1.81510380834354      0.0251195634496042        7.01873712667912        2.45301337076886        1.84716415622064   5.57634528830508E-011                       0                       0                       0                       0   5.57634528830508E-011                       0                       0       0.999575674533844       0.998440802097321                       0                       0                       0                       4 
                 1.0501      0.0132533133283321        1.85872297842884        1.81445784026196      0.0253498361411941        7.01620172986719        2.45216228285815        1.84698153949927   5.57634528830508E-011                       0                       0                       0                       0   5.57634528830508E-011                       0                       0       0.999575674533844       0.998440802097321                       0                       0                       0                       4 
                 1.0501       0.013503375843961        1.85829586420418        1.81385887873954      0.0256149812769302        7.01385739504077        2.45137549600722        1.84681331706818   5.57634528830508E-011                       0                       0                       0                       0   5.57634528830508E-011                       0                       0       0.999575674533844       0.998440802097321                       0                       0                       0                       4 