VARIABLES = "x"
 "y"
 "rho"
 "rhoU"
 "rhoV"
 "rhoE"
 "P"
 "T"
 "ABV"
 "error"
 "error_hMLP"
 "error_BD"
 "ABV_P"
 "ABV_I"
 "ABV_I_BD"
 "ABV_D"
 "Ducros"
 "Sk"
 "trouble_vertex"
 "trouble_face"
 "hMLP_penalty"
 "BD_penalty"
ZONE
DT=(DOUBLE,DOUBLE,DOUBLE,DOUBLE,DOUBLE,DOUBLE,DOUBLE,DOUBLE,DOUBLE,DOUBLE,DOUBLE,DOUBLE,DOUBLE,DOUBLE,DOUBLE,DOUBLE,DOUBLE,DOUBLE,DOUBLE,DOUBLE,DOUBLE,DOUBLE)
                 0.5201                       0        1.94758846995281        1.72122239422945   2.49859427181762E-005         7.3567944220817        2.63848436396554        1.89664210268901   1.23854817957181E-006    0.000127713370602578    0.000127713370602578                       0   1.21327695978835E-006   2.52712180071057E-008   1.85923649204258E-018                       0       0.646222591400146       0.997648119926453                       1                       0                       0                       3 
                 0.5201    0.000250062515628907        1.94759063544314        1.72126296426857   -0.000228784289977958        7.35681575174796        2.63847890762501        1.89663608342542   1.23854817957181E-006    0.000127713370602578    0.000127713370602578                       0   1.21327695978835E-006   2.52712180071057E-008   1.85923649204258E-018                       0       0.646222591400146       0.997648119926453                       1                       0                       0                       3 
                 0.5201    0.000500125031257815        1.94759411722491        1.72130507951939   -0.000494563680782499        7.35683921800323        2.63847394727837         1.8966291675575   1.23854817957181E-006    0.000127713370602578    0.000127713370602578                       0   1.21327695978835E-006   2.52712180071057E-008   1.85923649204258E-018                       0       0.646222591400146       0.997648119926453                       1                       0                       0                       3 
                 0.5201    0.000750187546886722        1.94759600438752        1.72140510674209   -0.000747858403912686        7.35689189178568        2.63845992354151        1.89661728034101   1.23854817957181E-006    0.000127713370602578    0.000127713370602578                       0   1.21327695978835E-006   2.52712180071057E-008   1.85923649204258E-018                       0       0.646222591400146       0.997648119926453                       1                       0                       0                       3 
                 0.5201     0.00100025006251563        1.94759691060469        1.72156164383518    -0.00100993686742252        7.35697430985298         2.6384376973729        1.89660039608417   1.23854817957181E-006    0.000127713370602578    0.000127713370602578                       0   1.21327695978835E-006   2.52712180071057E-008   1.85923649204258E-018                       0       0.646222591400146       0.997648119926453                       1                       0                       0                       3 
                 0.5201     0.00125031257814454        1.94759783417271        1.72171821712058    -0.00127198307259124        7.35705672267329        2.63841545880231        1.89658348612901   1.23854817957181E-006    0.000127713370602578    0.000127713370602578                       0   1.21327695978835E-006   2.52712180071057E-008   1.85923649204258E-018                       0       0.646222591400146       0.997648119926453                       1                       0                       0                       3 
                 0.5201     0.00150037509377344        1.94761155871397        1.72189954707382      -0.001522169892878        7.35713264923795        2.63838371344051        1.89654733558699   1.23854817957181E-006    0.000127713370602578    0.000127713370602578                       0   1.21327695978835E-006   2.52712180071057E-008   1.85923649204258E-018                       0       0.646222591400146       0.997648119926453                       1                       0                       0                       3 
                 0.5201     0.00175043760940235        1.94762457962391        1.72207811955296    -0.00178158238432509        7.35720705443759        2.63835223431758         1.8965120408128   1.23854817957181E-006    0.000127713370602578    0.000127713370602578                       0   1.21327695978835E-006   2.52712180071057E-008   1.85923649204258E-018                       0       0.646222591400146       0.997648119926453                       1                       0                       0                       3 
                 0.5201     0.00200050012503126        1.94765277503514        1.72222626784342    -0.00203229903595296        7.35724728351417        2.63832021958503        1.89646158611902   1.23854817957181E-006    0.000127713370602578    0.000127713370602578                       0   1.21327695978835E-006   2.52712180071057E-008   1.85923649204258E-018                       0       0.646222591400146       0.997648119926453                       1                       0                       0                       3 
                 0.5201     0.00225056264066016        1.94769264859085        1.72233429846983    -0.00229008069979145        7.35724690194904        2.63828797733186        1.89639958178599   1.23854817957181E-006    0.000127713370602578    0.000127713370602578                       0   1.21327695978835E-006   2.52712180071057E-008   1.85923649204258E-018                       0       0.646222591400146       0.997648119926453                       1                       0                       0                       3 
                 0.5201     0.00250062515628907        1.94774284817292        1.72268869419662    -0.00249887023782985        7.35749109431821        2.63826796723559        1.89633637114617   5.72395379094814E-007   5.85737689107191E-005   5.85737689107191E-005                       0   5.56450800104358E-007   1.59445932013114E-008                       0                       0       0.386172443628311       0.997548639774323                       2                       0                       0                       4 
                 0.5201     0.00275068767191798        1.94779371176656        1.72284927983703     -0.0027747367012554        7.35755135213911         2.6382430358253        1.89626896936532   5.72395379094814E-007   5.85737689107191E-005   5.85737689107191E-005                       0   5.56450800104358E-007   1.59445932013114E-008                       0                       0       0.386172443628311       0.997548639774323                       2                       0                       0                       4 
                 0.5201     0.00300075018754689        1.94784622465729        1.72301049107289    -0.00306343072246713        7.35761297489554        2.63821871105302        1.89620033535099   5.72395379094814E-007   5.85737689107191E-005   5.85737689107191E-005                       0   5.56450800104358E-007   1.59445932013114E-008                       0                       0       0.386172443628311       0.997548639774323                       2                       0                       0                       4 
                 0.5201     0.00325081270317579         1.9478734064449        1.72316826561513    -0.00334269060677152        7.35768806042072        2.63819700849068          1.896158259813   5.72395379094814E-007   5.85737689107191E-005   5.85737689107191E-005                       0   5.56450800104358E-007   1.59445932013114E-008                       0                       0       0.386172443628311       0.997548639774323                       2                       0                       0                       4 
                 0.5201      0.0035008752188047        1.94788008383586        1.72331650369434    -0.00363448998315995        7.35777810980732        2.63818145970888        1.89614051703132   5.72395379094814E-007   5.85737689107191E-005   5.85737689107191E-005                       0   5.56450800104358E-007   1.59445932013114E-008                       0                       0       0.386172443628311       0.997548639774323                       2                       0                       0                       4 
                 0.5201     0.00375093773443361        1.94788662367223        1.72346451674908    -0.00392624647535117        7.35786799391365        2.63816590234113        1.89612290214501   5.72395379094814E-007   5.85737689107191E-005   5.85737689107191E-005                       0   5.56450800104358E-007   1.59445932013114E-008                       0                       0       0.386172443628311       0.997548639774323                       2                       0                       0                       4 
                 0.5201     0.00400100025006252         1.9478609715904         1.7235424728468    -0.00422032526169065        7.35791431807664        2.63815249903889        1.89613828262091   5.72395379094814E-007   5.85737689107191E-005   5.85737689107191E-005                       0   5.56450800104358E-007   1.59445932013114E-008                       0                       0       0.386172443628311       0.997548639774323                       2                       0                       0                       4 
                 0.5201     0.00425106276569142        1.94783817307835        1.72361368242524    -0.00452340361476732        7.35796086901339        2.63814200599987        1.89615302057118   5.72395379094814E-007   5.85737689107191E-005   5.85737689107191E-005                       0   5.56450800104358E-007   1.59445932013114E-008                       0                       0       0.386172443628311       0.997548639774323                       2                       0                       0                       4 
                 0.5201     0.00450112528132033          1.947805243937        1.72362417698561    -0.00482912051812258        7.35794941225472        2.63812825842797        1.89617518362965   5.72395379094814E-007   5.85737689107191E-005   5.85737689107191E-005                       0   5.56450800104358E-007   1.59445932013114E-008                       0                       0       0.386172443628311       0.997548639774323                       2                       0                       0                       4 
                 0.5201     0.00475118779694924        1.94776928141714        1.72355420746753    -0.00515165172935133        7.35788034895398        2.63811948242843        1.89620384871511   5.72395379094814E-007   5.85737689107191E-005   5.85737689107191E-005                       0   5.56450800104358E-007   1.59445932013114E-008                       0                       0       0.386172443628311       0.997548639774323                       2                       0                       0                       4 
                 0.5201     0.00500125031257814        1.94771479870657        1.72386582140257    -0.00546104565578415        7.35807580493692         2.6380784994416        1.89622744950039    8.6334694060497E-008   8.57161558087682E-006   8.57161558087682E-006                       0   8.14303433571695E-008   4.90416152132411E-009                       0   1.86039077480944E-013       0.168873280286789        0.99716317653656                       1                       0                       0                       4 
                 0.5201     0.00525131282820705         1.9476664727775        1.72371822402068    -0.00578825979948812        7.35790394729145        2.63805401833784        1.89625687471257    8.6334694060497E-008   8.57161558087682E-006   8.57161558087682E-006                       0   8.14303433571695E-008   4.90416152132411E-009                       0   1.86039077480944E-013       0.168873280286789        0.99716317653656                       1                       0                       0                       4 
                 0.5201     0.00550137534383596        1.94762931789408        1.72354828454749    -0.00611761906829686        7.35771106622786        2.63803074287814        1.89627633452314    8.6334694060497E-008   8.57161558087682E-006   8.57161558087682E-006                       0   8.14303433571695E-008   4.90416152132411E-009                       0   1.86039077480944E-013       0.168873280286789        0.99716317653656                       1                       0                       0                       4 
                 0.5201     0.00575143785946487         1.9475953413468        1.72355286788563    -0.00648968254912545        7.35766251829532        2.63800386080756        1.89629008849173    8.6334694060497E-008   8.57161558087682E-006   8.57161558087682E-006                       0   8.14303433571695E-008   4.90416152132411E-009                       0   1.86039077480944E-013       0.168873280286789        0.99716317653656                       1                       0                       0                       4 
                 0.5201     0.00600150037509377        1.94757707391297        1.72364554053296    -0.00689200262031319        7.35768159655519        2.63797533880905        1.89628732214405    8.6334694060497E-008   8.57161558087682E-006   8.57161558087682E-006                       0   8.14303433571695E-008   4.90416152132411E-009                       0   1.86039077480944E-013       0.168873280286789        0.99716317653656                       1                       0                       0                       4 
                 0.5201     0.00625156289072268        1.94755900887549        1.72374049200225      -0.007295251309819        7.35770270056706        2.63794684840703        1.89628438171762    8.6334694060497E-008   8.57161558087682E-006   8.57161558087682E-006                       0   8.14303433571695E-008   4.90416152132411E-009                       0   1.86039077480944E-013       0.168873280286789        0.99716317653656                       1                       0                       0                       4 
                 0.5201     0.00650162540635159        1.94757520881483        1.72410555252724    -0.00782524175274226        7.35796541341709        2.63792430749273        1.89625240200955    8.6334694060497E-008   8.57161558087682E-006   8.57161558087682E-006                       0   8.14303433571695E-008   4.90416152132411E-009                       0   1.86039077480944E-013       0.168873280286789        0.99716317653656                       1                       0                       0                       4 
                 0.5201     0.00675168792198049        1.94759276081391         1.7244107092939    -0.00834164851378743        7.35817584662348        2.63790236749388        1.89621953970692    8.6334694060497E-008   8.57161558087682E-006   8.57161558087682E-006                       0   8.14303433571695E-008   4.90416152132411E-009                       0   1.86039077480944E-013       0.168873280286789        0.99716317653656                       1                       0                       0                       4 
                 0.5201      0.0070017504376094        1.94764077755359        1.72487812465362     -0.0089585144943107        7.35854192737922        2.63788956100455        1.89616366011099    8.6334694060497E-008   8.57161558087682E-006   8.57161558087682E-006                       0   8.14303433571695E-008   4.90416152132411E-009                       0   1.86039077480944E-013       0.168873280286789        0.99716317653656                       1                       0                       0                       4 
                 0.5201     0.00725181295323831        1.94771131941946        1.72534558971614    -0.00963013519595036        7.35892349257666        2.63788631770037        1.89609268898427    8.6334694060497E-008   8.57161558087682E-006   8.57161558087682E-006                       0   8.14303433571695E-008   4.90416152132411E-009                       0   1.86039077480944E-013       0.168873280286789        0.99716317653656                       1                       0                       0                       4 
                 0.5201     0.00750187546886722        1.94778281342415         1.7254909564895     -0.0103423381379089        7.35884077579079         2.6378116944114        1.89596935768125   5.48156020574453E-010                       0                       0                       0                       0   5.48156020574453E-010                       0                       0     0.00886372104287148       0.997769415378571                       0                       0                       0                       4 
                 0.5201     0.00775193798449612        1.94794941356702        1.72634852275611     -0.0111519686535942         7.3595949982293        2.63783351236072        1.89582297023608   5.48156020574453E-010                       0                       0                       0                       0   5.48156020574453E-010                       0                       0     0.00886372104287148       0.997769415378571                       0                       0                       0                       4 
                 0.5201     0.00800200050012503         1.9481015626895          1.727088234587     -0.0118537426940107         7.3602509088037        2.63785592931607        1.89569099637341   5.48156020574453E-010                       0                       0                       0                       0   5.48156020574453E-010                       0                       0     0.00886372104287148       0.997769415378571                       0                       0                       0                       4 
                 0.5201     0.00825206301575394        1.94828656921852        1.72797121388407     -0.0127716689758848        7.36101940501778        2.63787658455462        1.89552594365152   5.48156020574453E-010                       0                       0                       0                       0   5.48156020574453E-010                       0                       0     0.00886372104287148       0.997769415378571                       0                       0                       0                       4 
                 0.5201     0.00850212553138285        1.94848517375582        1.72883669849834     -0.0137103637495053        7.36175181886858        2.63789117941255        1.89534317405812   5.48156020574453E-010                       0                       0                       0                       0   5.48156020574453E-010                       0                       0     0.00886372104287148       0.997769415378571                       0                       0                       0                       4 
                 0.5201     0.00875218804701175        1.94868457205386        1.72970478224084     -0.0146522284831583        7.36248625092494        2.63790575841195        1.89515962614517   5.48156020574453E-010                       0                       0                       0                       0   5.48156020574453E-010                       0                       0     0.00886372104287148       0.997769415378571                       0                       0                       0                       4 
                 0.5201     0.00900225056264066        1.94896817350683        1.73080854575788     -0.0158289853019563        7.36337765928596        2.63791081719245        1.89488767194134   5.48156020574453E-010                       0                       0                       0                       0   5.48156020574453E-010                       0                       0     0.00886372104287148       0.997769415378571                       0                       0                       0                       4 
                 0.5201     0.00925231307826957        1.94924809906624          1.731874542734     -0.0169259121386106        7.36422301635106        2.63791091258368        1.89461556846265   5.48156020574453E-010                       0                       0                       0                       0   5.48156020574453E-010                       0                       0     0.00886372104287148       0.997769415378571                       0                       0                       0                       4 
                 0.5201     0.00950237559389847        1.94958545220458        1.73307864284063     -0.0181308213070385        7.36516504769263        2.63790824367641        1.89428600414732   5.48156020574453E-010                       0                       0                       0                       0   5.48156020574453E-010                       0                       0     0.00886372104287148       0.997769415378571                       0                       0                       0                       4 
                 0.5201     0.00975243810952738         1.9499815648703        1.73441984550891     -0.0193072927667722        7.36615959812076        2.63788725757491        1.89388607582678   5.48156020574453E-010                       0                       0                       0                       0   5.48156020574453E-010                       0                       0     0.00886372104287148       0.997769415378571                       0                       0                       0                       4 
                 0.5201      0.0100025006251563        1.95035535615283         1.7355018405776     -0.0202880296621613        7.36723713870369        2.63798880666698        1.89359585129684   2.10369037745295E-008   1.32725028834102E-006   1.32725028834102E-006                       0   1.26088774976552E-008   8.42791969546397E-009                       0   1.06966756144907E-013      0.0105946250259876       0.997592747211456                       1                       0                       0                       4 
                 0.5201      0.0102525631407852        1.95082941275307        1.73722213241814      -0.021731786456237        7.36857163277487        2.63797810338702        1.89312831725428   2.10369037745295E-008   1.32725028834102E-006   1.32725028834102E-006                       0   1.26088774976552E-008   8.42791969546397E-009                       0   1.06966756144907E-013      0.0105946250259876       0.997592747211456                       1                       0                       0                       4 
                 0.5201      0.0105026256564141        1.95130756128487        1.73900051108713     -0.0231955626185944        7.36994354942012        2.63796293618172        1.89265326893741   2.10369037745295E-008   1.32725028834102E-006   1.32725028834102E-006                       0   1.26088774976552E-008   8.42791969546397E-009                       0   1.06966756144907E-013      0.0105946250259876       0.997592747211456                       1                       0                       0                       4 
                 0.5201       0.010752688172043        1.95180609818962        1.74068089473272     -0.0245713102421509        7.37125836444929        2.63796197486733        1.89216932670685   2.10369037745295E-008   1.32725028834102E-006   1.32725028834102E-006                       0   1.26088774976552E-008   8.42791969546397E-009                       0   1.06966756144907E-013      0.0105946250259876       0.997592747211456                       1                       0                       0                       4 
                 0.5201      0.0110027506876719        1.95235178371104        1.74242636342795     -0.0259193634302027        7.37263695848051        2.63797036929542         1.8916464873846   2.10369037745295E-008   1.32725028834102E-006   1.32725028834102E-006                       0   1.26088774976552E-008   8.42791969546397E-009                       0   1.06966756144907E-013      0.0105946250259876       0.997592747211456                       1                       0                       0                       4 
                 0.5201      0.0112528132033008        1.95289742632232        1.74416864056632     -0.0272645650308852        7.37401302673431        2.63797887531382        1.89112378593182   2.10369037745295E-008   1.32725028834102E-006   1.32725028834102E-006                       0   1.26088774976552E-008   8.42791969546397E-009                       0   1.06966756144907E-013      0.0105946250259876       0.997592747211456                       1                       0                       0                       4 
                 0.5201      0.0115028757189297        1.95347591629591        1.74578746000444     -0.0284161744592002        7.37529313986709        2.63799765694476        1.89057760476984   2.10369037745295E-008   1.32725028834102E-006   1.32725028834102E-006                       0   1.26088774976552E-008   8.42791969546397E-009                       0   1.06966756144907E-013      0.0105946250259876       0.997592747211456                       1                       0                       0                       4 
                 0.5201      0.0117529382345586        1.95407769275629        1.74750617402121     -0.0296040757427489        7.37665342080946        2.63801673521885        1.89000878602795   2.10369037745295E-008   1.32725028834102E-006   1.32725028834102E-006                       0   1.26088774976552E-008   8.42791969546397E-009                       0   1.06966756144907E-013      0.0105946250259876       0.997592747211456                       1                       0                       0                       4 
                 0.5201      0.0120030007501875        1.95466854632962        1.74908994070326     -0.0306415066025119        7.37788728532387        2.63803173739236        1.88944838418306   2.10369037745295E-008   1.32725028834102E-006   1.32725028834102E-006                       0   1.26088774976552E-008   8.42791969546397E-009                       0   1.06966756144907E-013      0.0105946250259876       0.997592747211456                       1                       0                       0                       4 
                 0.5201      0.0122530632658165        1.95531506037935        1.75078804765364     -0.0316248209957865        7.37920482896899        2.63804814468363        1.88883544784569   2.10369037745295E-008   1.32725028834102E-006   1.32725028834102E-006                       0   1.26088774976552E-008   8.42791969546397E-009                       0   1.06966756144907E-013      0.0105946250259876       0.997592747211456                       1                       0                       0                       4 
                 0.5201      0.0125031257814454        1.95585326950285        1.75229723666681     -0.0326671839810453        7.38049733230735         2.6381043998133        1.88835556936916   3.26184039630903E-013                       0                       0                       0                       0   3.26184039630903E-013                       0                       0       0.386073917150497       0.998595178127289                       2                       0                       0                       4 
                 0.5201      0.0127531882970743        1.95636667092502        1.75371495335654     -0.0333518472783699        7.38154594076646        2.63809324500043        1.88785231950612   3.26184039630903E-013                       0                       0                       0                       0   3.26184039630903E-013                       0                       0       0.386073917150497       0.998595178127289                       2                       0                       0                       4 
                 0.5201      0.0130032508127032        1.95692623670398        1.75527484074154     -0.0341354039190261        7.38270513669996        2.63808227499283        1.88730443917004   3.26184039630903E-013                       0                       0                       0                       0   3.26184039630903E-013                       0                       0       0.386073917150497       0.998595178127289                       2                       0                       0                       4 
                 0.5201      0.0132533133283321        1.95738282792054        1.75645940757763     -0.0346994854732088         7.3835554808742        2.63806700241603        1.88685324404781   3.26184039630903E-013                       0                       0                       0                       0   3.26184039630903E-013                       0                       0       0.386073917150497       0.998595178127289                       2                       0                       0                       4 
                 0.5201       0.013503375843961        1.95783097591104        1.75752817089938     -0.0352311559365153        7.38430907157768         2.6380530752967        1.88641143957399   3.26184039630903E-013                       0                       0                       0                       0   3.26184039630903E-013                       0                       0       0.386073917150497       0.998595178127289                       2                       0                       0                       4 