VARIABLES = "x"
 "y"
 "rho"
 "rhoU"
 "rhoV"
 "rhoE"
 "P"
 "T"
 "ABV"
 "error"
 "error_hMLP"
 "error_BD"
 "ABV_P"
 "ABV_I"
 "ABV_I_BD"
 "ABV_D"
 "Ducros"
 "Sk"
 "trouble_vertex"
 "trouble_face"
 "hMLP_penalty"
 "BD_penalty"
ZONE
DT=(DOUBLE,DOUBLE,DOUBLE,DOUBLE,DOUBLE,DOUBLE,DOUBLE,DOUBLE,DOUBLE,DOUBLE,DOUBLE,DOUBLE,DOUBLE,DOUBLE,DOUBLE,DOUBLE,DOUBLE,DOUBLE,DOUBLE,DOUBLE,DOUBLE,DOUBLE)
                 1.0501                       0        1.87498853404125        1.83658537343008   2.15280078098483E-005        7.10684769709536        2.48294544306954        1.85394391891467   4.10168038687789E-029                       0                       0                       0                       0   4.10168038687789E-029                       0                       0       0.996396481990814       0.999591469764709                       0                       0                       0                       3 
                 1.0501    0.000250062515628907        1.87497572053421        1.83658600302145    0.000892332667315268        7.10680863405455        2.48292678439273        1.85394268118157   4.10168038687789E-029                       0                       0                       0                       0   4.10168038687789E-029                       0                       0       0.996396481990814       0.999591469764709                       0                       0                       0                       3 
                 1.0501    0.000500125031257815        1.87496337928773        1.83658657536911     0.00176648067378154        7.10677157454337        2.48290904161518        1.85394164380143   4.10168038687789E-029                       0                       0                       0                       0   4.10168038687789E-029                       0                       0       0.996396481990814       0.999591469764709                       0                       0                       0                       3 
                 1.0501    0.000750187546886722        1.87495103804124        1.83658714771678     0.00264062868024782         7.1067345150322        2.48289129883763        1.85394060642129   4.10168038687789E-029                       0                       0                       0                       0   4.10168038687789E-029                       0                       0       0.996396481990814       0.999591469764709                       0                       0                       0                       3 
                 1.0501     0.00100025006251563        1.87493584680778        1.83661677066427     0.00351080902122088        7.10665339223246        2.48284369177192        1.85392007097851   4.10168038687789E-029                       0                       0                       0                       0   4.10168038687789E-029                       0                       0       0.996396481990814       0.999591469764709                       0                       0                       0                       3 
                 1.0501     0.00125031257814454        1.87492060805125        1.83666234384693     0.00438457171743457        7.10655752399892        2.48278373835423        1.85389038044349   4.10168038687789E-029                       0                       0                       0                       0   4.10168038687789E-029                       0                       0       0.996396481990814       0.999591469764709                       0                       0                       0                       3 
                 1.0501     0.00150037509377344        1.87490536929473        1.83670791702959     0.00525833441364825        7.10646165576539        2.48272378493654        1.85386068990848   4.10168038687789E-029                       0                       0                       0                       0   4.10168038687789E-029                       0                       0       0.996396481990814       0.999591469764709                       0                       0                       0                       3 
                 1.0501     0.00175043760940235        1.87488816523938        1.83675633030983     0.00612630187588857        7.10633300060271        2.48264906781313        1.85382191586006   4.10168038687789E-029                       0                       0                       0                       0   4.10168038687789E-029                       0                       0       0.996396481990814       0.999591469764709                       0                       0                       0                       3 
                 1.0501     0.00200050012503126        1.87487023712799        1.83681509705075     0.00699229477187399        7.10615705327691        2.48255092981348        1.85376631434257   4.10168038687789E-029                       0                       0                       0                       0   4.10168038687789E-029                       0                       0       0.996396481990814       0.999591469764709                       0                       0                       0                       3 
                 1.0501     0.00225056264066016         1.8748525301197         1.8368741919552     0.00785895082256597        7.10598234412841        2.48245320143639        1.85371079661151   4.10168038687789E-029                       0                       0                       0                       0   4.10168038687789E-029                       0                       0       0.996396481990814       0.999591469764709                       0                       0                       0                       3 
                 1.0501     0.00250062515628907        1.87483480665495        1.83693322326969     0.00872554451948001        7.10580732230721        2.48235536841772        1.85365521725819   4.10168038687789E-029                       0                       0                       0                       0   4.10168038687789E-029                       0                       0       0.996396481990814       0.999591469764709                       0                       0                       0                       3 
                 1.0501     0.00275068767191798        1.87481323298404        1.83697145311178     0.00957395448819634        7.10552341623377         2.4822207868055        1.85357610878638   4.10168038687789E-029                       0                       0                       0                       0   4.10168038687789E-029                       0                       0       0.996396481990814       0.999591469764709                       0                       0                       0                       3 
                 1.0501     0.00300075018754689        1.87479345122071        1.83701269790948      0.0104267814513144        7.10524997717602        2.48208950457866        1.85349769716752   4.10168038687789E-029                       0                       0                       0                       0   4.10168038687789E-029                       0                       0       0.996396481990814       0.999591469764709                       0                       0                       0                       3 
                 1.0501     0.00325081270317579        1.87477366945737        1.83705394270717      0.0112796084144324        7.10497653811826        2.48195822235182        1.85341928554865   4.10168038687789E-029                       0                       0                       0                       0   4.10168038687789E-029                       0                       0       0.996396481990814       0.999591469764709                       0                       0                       0                       3 
                 1.0501      0.0035008752188047        1.87474541355534        1.83704098649201      0.0121233485999742        7.10462904414991        2.48181672038741        1.85334152265146   1.91504079261051E-009                       0                       0                       0                       0   1.91504079261051E-009                       0                       0       0.994480431079865       0.998771250247955                       0                       0                       0                       4 
                 1.0501     0.00375093773443361         1.8747039541273        1.83700260343223      0.0129511037766132        7.10419062590138        2.48164623235113        1.85325513393815   1.91504079261051E-009                       0                       0                       0                       0   1.91504079261051E-009                       0                       0       0.994480431079865       0.998771250247955                       0                       0                       0                       4 
                 1.0501     0.00400100025006252        1.87466249469926        1.83696422037245      0.0137788589532522        7.10375220765284        2.48147574431486        1.85316874522485   1.91504079261051E-009                       0                       0                       0                       0   1.91504079261051E-009                       0                       0       0.994480431079865       0.998771250247955                       0                       0                       0                       4 
                 1.0501     0.00425106276569142        1.87460512313838        1.83690894727288       0.014594302064217        7.10326791217816        2.48129033410189        1.85308695628254   1.91504079261051E-009                       0                       0                       0                       0   1.91504079261051E-009                       0                       0       0.994480431079865       0.998771250247955                       0                       0                       0                       4 
                 1.0501     0.00450112528132033        1.87452731439632        1.83683510670332      0.0154006341302302        7.10275298286345         2.4810956182101        1.85301848887545   1.91504079261051E-009                       0                       0                       0                       0   1.91504079261051E-009                       0                       0       0.994480431079865       0.998771250247955                       0                       0                       0                       4 
                 1.0501     0.00475118779694924        1.87445022628816        1.83676223966095      0.0162079710903022        7.10224201927325        2.48090223616245        1.85295030793153   1.91504079261051E-009                       0                       0                       0                       0   1.91504079261051E-009                       0                       0       0.994480431079865       0.998771250247955                       0                       0                       0                       4 
                 1.0501     0.00500125031257814        1.87437279491985         1.8366888991377      0.0170149476828634        7.10172965545405        2.48070841336831        1.85288213682591   1.91504079261051E-009                       0                       0                       0                       0   1.91504079261051E-009                       0                       0       0.994480431079865       0.998771250247955                       0                       0                       0                       4 
                 1.0501     0.00525131282820705        1.87423777255445        1.83653601608077      0.0177638083111808        7.10099770412109        2.48044671184099        1.85282012146138   1.91504079261051E-009                       0                       0                       0                       0   1.91504079261051E-009                       0                       0       0.994480431079865       0.998771250247955                       0                       0                       0                       4 
                 1.0501     0.00550137534383596        1.87410974555449        1.83639271455469      0.0185215445302174        7.10030430502435        2.48019795527275        1.85276084771482   1.91504079261051E-009                       0                       0                       0                       0   1.91504079261051E-009                       0                       0       0.994480431079865       0.998771250247955                       0                       0                       0                       4 
                 1.0501     0.00575143785946487        1.87398171855453        1.83624941302861       0.019279280749254        7.09961090592761        2.47994919870451        1.85270157396826   1.91504079261051E-009                       0                       0                       0                       0   1.91504079261051E-009                       0                       0       0.994480431079865       0.998771250247955                       0                       0                       0                       4 
                 1.0501     0.00600150037509377        1.87379958899912         1.8360214255332      0.0199724863737805         7.0986681568362        2.47962354626713        1.85263836287261   1.91504079261051E-009                       0                       0                       0                       0   1.91504079261051E-009                       0                       0       0.994480431079865       0.998771250247955                       0                       0                       0                       4 
                 1.0501     0.00625156289072268        1.87360534853816        1.83577177467187      0.0206514420780502        7.09768228812457        2.47928679125801        1.85257876718054   1.91504079261051E-009                       0                       0                       0                       0   1.91504079261051E-009                       0                       0       0.994480431079865       0.998771250247955                       0                       0                       0                       4 
                 1.0501     0.00650162540635159        1.87341110807719        1.83552212381053      0.0213303977823199        7.09669641941294        2.47895003624889        1.85251917148846   1.91504079261051E-009                       0                       0                       0                       0   1.91504079261051E-009                       0                       0       0.994480431079865       0.998771250247955                       0                       0                       0                       4 
                 1.0501     0.00675168792198049        1.87311894236445        1.83512319827166      0.0218818777086917        7.09516502655278        2.47843519559846        1.85242340949276   2.69265082453174E-010                       0                       0                       0                       0   2.69265082453174E-010                       0                       0       0.989184498786926       0.998829305171967                       0                       0                       0                       4 
                 1.0501      0.0070017504376094        1.87287011291931        1.83473335205538      0.0224874815039492        7.09385267554666        2.47801230289297        1.85235337739404   2.69265082453174E-010                       0                       0                       0                       0   2.69265082453174E-010                       0                       0       0.989184498786926       0.998829305171967                       0                       0                       0                       4 
                 1.0501     0.00725181295323831        1.87262378869065        1.83434694567752        0.02309636241807        7.09255416124224        2.47759405966302        1.85228433792827   2.69265082453174E-010                       0                       0                       0                       0   2.69265082453174E-010                       0                       0       0.989184498786926       0.998829305171967                       0                       0                       0                       4 
                 1.0501     0.00750187546886722        1.87237626564712        1.83395865280291      0.0237034753496272        7.09124866333022         2.4771735400796        1.85221478142632   2.69265082453174E-010                       0                       0                       0                       0   2.69265082453174E-010                       0                       0       0.989184498786926       0.998829305171967                       0                       0                       0                       4 
                 1.0501     0.00775193798449612        1.87199203837203        1.83335093944114      0.0241049019496165        7.08914007213816        2.47649240012036        1.85208547987099   2.69265082453174E-010                       0                       0                       0                       0   2.69265082453174E-010                       0                       0       0.989184498786926       0.998829305171967                       0                       0                       0                       4 
                 1.0501     0.00800200050012503        1.87162198009471        1.83276274531316      0.0245245889946911        7.08710967022222        2.47583749176453        1.85196178131875   2.69265082453174E-010                       0                       0                       0                       0   2.69265082453174E-010                       0                       0       0.989184498786926       0.998829305171967                       0                       0                       0                       4 
                 1.0501     0.00825206301575394         1.8712519218174        1.83217455118519      0.0249442760397658        7.08507926830629         2.4751825834087         1.8518380827665   2.69265082453174E-010                       0                       0                       0                       0   2.69265082453174E-010                       0                       0       0.989184498786926       0.998829305171967                       0                       0                       0                       4 
                 1.0501     0.00850212553138285        1.87079427694486        1.83146509670129      0.0252304198779906        7.08254869752754        2.47435891252232        1.85167463204103   2.69265082453174E-010                       0                       0                       0                       0   2.69265082453174E-010                       0                       0       0.989184498786926       0.998829305171967                       0                       0                       0                       4 
                 1.0501     0.00875218804701175        1.87031250282849        1.83072229602365      0.0254750657660558        7.07987711911152        2.47348744080989        1.85149920731081   2.69265082453174E-010                       0                       0                       0                       0   2.69265082453174E-010                       0                       0       0.989184498786926       0.998829305171967                       0                       0                       0                       4 
                 1.0501     0.00900225056264066        1.86983072871211        1.82997949534602      0.0257197116541211        7.07720554069549        2.47261596909745        1.85132378258058   2.69265082453174E-010                       0                       0                       0                       0   2.69265082453174E-010                       0                       0       0.989184498786926       0.998829305171967                       0                       0                       0                       4 
                 1.0501     0.00925231307826957          1.869306330535        1.82918798152966      0.0258988310181926        7.07429818837427         2.4716614300606        1.85112821584822   2.69265082453174E-010                       0                       0                       0                       0   2.69265082453174E-010                       0                       0       0.989184498786926       0.998829305171967                       0                       0                       0                       4 
                 1.0501     0.00950237559389847        1.86872350371891        1.82833568830541      0.0259808341209767        7.07106754367108        2.47059064667023        1.85090328729541   2.69265082453174E-010                       0                       0                       0                       0   2.69265082453174E-010                       0                       0       0.989184498786926       0.998829305171967                       0                       0                       0                       4 
                 1.0501     0.00975243810952738        1.86814210588981         1.8274853944275        0.02606458858217         7.0678447975184        2.46952250299355        1.85067892704289   2.69265082453174E-010                       0                       0                       0                       0   2.69265082453174E-010                       0                       0       0.989184498786926       0.998829305171967                       0                       0                       0                       4 
                 1.0501      0.0100025006251563        1.86762797284001        1.82670278937005      0.0262324891629114        7.06497005199635        2.46857948550366        1.85048159218431   3.02917274597192E-010                       0                       0                       0                       0   3.02917274597192E-010                       0                       0       0.993600726127625       0.998306393623352                       0                       0                       0                       4 
                 1.0501      0.0102525631407852        1.86692909889194        1.82571591727259      0.0261426740347775         7.0611206897555        2.46729255840828        1.85020897587621   3.02917274597192E-010                       0                       0                       0                       0   3.02917274597192E-010                       0                       0       0.993600726127625       0.998306393623352                       0                       0                       0                       4 
                 1.0501      0.0105026256564141        1.86623015517799        1.82472897540924       0.026051536625124         7.0572709368257        2.46600549178112        1.84993635956811   3.02917274597192E-010                       0                       0                       0                       0   3.02917274597192E-010                       0                       0       0.993600726127625       0.998306393623352                       0                       0                       0                       4 
                 1.0501       0.010752688172043        1.86553121146404         1.8237420335459      0.0259603992154705        7.05342118389589        2.46471842515397           1.84966374326   3.02917274597192E-010                       0                       0                       0                       0   3.02917274597192E-010                       0                       0       0.993600726127625       0.998306393623352                       0                       0                       0                       4 
                 1.0501      0.0110027506876719        1.86482851993414        1.82275519871399       0.025855939791262        7.04955517595584        2.46342410338409        1.84938892943056   3.02917274597192E-010                       0                       0                       0                       0   3.02917274597192E-010                       0                       0       0.993600726127625       0.998306393623352                       0                       0                       0                       4 
                 1.0501      0.0112528132033008        1.86411905933335        1.82176178216861      0.0257372480933818        7.04565405483047        2.46211707613498        1.84911112622249   3.02917274597192E-010                       0                       0                       0                       0   3.02917274597192E-010                       0                       0       0.993600726127625       0.998306393623352                       0                       0                       0                       4 
                 1.0501      0.0115028757189297        1.86340959873256        1.82076836562324      0.0256185563955016        7.04175293370509        2.46081004888587        1.84883332301441   3.02917274597192E-010                       0                       0                       0                       0   3.02917274597192E-010                       0                       0       0.993600726127625       0.998306393623352                       0                       0                       0                       4 
                 1.0501      0.0117529382345586        1.86271518210047        1.81980010052019       0.025515745942161        7.03793731267417         2.4595301723596        1.84856071546739   3.02917274597192E-010                       0                       0                       0                       0   3.02917274597192E-010                       0                       0       0.993600726127625       0.998306393623352                       0                       0                       0                       4 
                 1.0501      0.0120030007501875        1.86203350787851        1.81885839287189      0.0254210368451619        7.03419734963299        2.45827257034033        1.84829171877851   3.02917274597192E-010                       0                       0                       0                       0   3.02917274597192E-010                       0                       0       0.993600726127625       0.998306393623352                       0                       0                       0                       4 
                 1.0501      0.0122530632658165        1.86135091184239        1.81791545022898      0.0253250428650512        7.03045233631087        2.45701326257095        1.84802235769729   3.02917274597192E-010                       0                       0                       0                       0   3.02917274597192E-010                       0                       0       0.993600726127625       0.998306393623352                       0                       0                       0                       4 
                 1.0501      0.0125031257814454        1.86066943315892        1.81697427147409      0.0252303770126973         7.0267135826674        2.45575597399506         1.8477533994711   3.02917274597192E-010                       0                       0                       0                       0   3.02917274597192E-010                       0                       0       0.993600726127625       0.998306393623352                       0                       0                       0                       4 
                 1.0501      0.0127531882970743        1.86006093893427         1.8161519205631      0.0252202405749438        7.02338559760257        2.45462995011696        1.84751017831198   3.02917274597192E-010                       0                       0                       0                       0   3.02917274597192E-010                       0                       0       0.993600726127625       0.998306393623352                       0                       0                       0                       4 
                 1.0501      0.0130032508127032        1.85944276777297        1.81531657926579      0.0251971952007323         7.0200045973432        2.45348604192899        1.84726310301477   3.02917274597192E-010                       0                       0                       0                       0   3.02917274597192E-010                       0                       0       0.993600726127625       0.998306393623352                       0                       0                       0                       4 
                 1.0501      0.0132533133283321        1.85882459661166        1.81448123796847      0.0251741498265209        7.01662359708383        2.45234213374102        1.84701602771755   3.02917274597192E-010                       0                       0                       0                       0   3.02917274597192E-010                       0                       0       0.993600726127625       0.998306393623352                       0                       0                       0                       4 
                 1.0501       0.013503375843961        1.85826340665457        1.81372064806742      0.0252272607307211        7.01355779644252        2.45130550181397        1.84679281364872   1.19731419223612E-010                       0                       0                       0                       0   1.19731419223612E-010                       0                       0       0.999169647693634       0.998657047748566                       0                       0                       0                       4 