VARIABLES = "x"
 "y"
 "rho"
 "rhoU"
 "rhoV"
 "rhoE"
 "P"
 "T"
 "ABV"
 "error"
 "error_hMLP"
 "error_BD"
 "ABV_P"
 "ABV_I"
 "ABV_I_BD"
 "ABV_D"
 "Ducros"
 "Sk"
 "trouble_vertex"
 "trouble_face"
 "hMLP_penalty"
 "BD_penalty"
ZONE
DT=(DOUBLE,DOUBLE,DOUBLE,DOUBLE,DOUBLE,DOUBLE,DOUBLE,DOUBLE,DOUBLE,DOUBLE,DOUBLE,DOUBLE,DOUBLE,DOUBLE,DOUBLE,DOUBLE,DOUBLE,DOUBLE,DOUBLE,DOUBLE,DOUBLE,DOUBLE)
                 0.5201                       0        1.94624010579273        1.72301382781905   4.59508875392023E-005        7.34998060570623        2.63491411199669        1.89538779035245   1.87605020407489E-009                       0                       0                       0                       0   1.87604931589647E-009   7.99272147490419E-016                       0       0.849879324436188       0.998819589614868                       0                       0                       0                       3 
                 0.5201    0.000250062515628907        1.94625289783061        1.72301234014834    -0.00010606929966243        7.34997362322166        2.63491384005142        1.89537513419121   1.87605020407489E-009                       0                       0                       0                       0   1.87604931589647E-009   7.99272147490419E-016                       0       0.849879324436188       0.998819589614868                       0                       0                       0                       3 
                 0.5201    0.000500125031257815        1.94626684880489        1.72301827825534    -0.00025770869016099        7.34996933061419        2.63491219455188        1.89536036046717   1.87605020407489E-009                       0                       0                       0                       0   1.87604931589647E-009   7.99272147490419E-016                       0       0.849879324436188       0.998819589614868                       0                       0                       0                       3 
                 0.5201    0.000750187546886722        1.94628079977917        1.72302421636234   -0.000409348080659551        7.34996503800672        2.63491054905235        1.89534558674312   1.87605020407489E-009                       0                       0                       0                       0   1.87604931589647E-009   7.99272147490419E-016                       0       0.849879324436188       0.998819589614868                       0                       0                       0                       3 
                 0.5201     0.00100025006251563        1.94629979179879        1.72315091413062   -0.000558854140390498        7.35005785052201        2.63490573755028        1.89532364349562   1.87605020407489E-009                       0                       0                       0                       0   1.87604931589647E-009   7.99272147490419E-016                       0       0.849879324436188       0.998819589614868                       0                       0                       0                       3 
                 0.5201     0.00125031257814454        1.94631910853241        1.72333885879443   -0.000703008636118435        7.35018763035457        2.63489407596665        1.89529645698163   1.87605020407489E-009                       0                       0                       0                       0   1.87604931589647E-009   7.99272147490419E-016                       0       0.849879324436188       0.998819589614868                       0                       0                       0                       3 
                 0.5201     0.00150037509377344        1.94633842526603        1.72352680345824   -0.000847163131846372        7.35031741018714        2.63488241438302        1.89526927046765   1.87605020407489E-009                       0                       0                       0                       0   1.87604931589647E-009   7.99272147490419E-016                       0       0.849879324436188       0.998819589614868                       0                       0                       0                       3 
                 0.5201     0.00175043760940235         1.9463665019574        1.72372779818966   -0.000996411621359972        7.35046674713873        2.63487528257133        1.89523681120134   1.87605020407489E-009                       0                       0                       0                       0   1.87604931589647E-009   7.99272147490419E-016                       0       0.849879324436188       0.998819589614868                       0                       0                       0                       3 
                 0.5201     0.00200050012503126        1.94640246876901        1.72394075073128    -0.00114327733185293        7.35061289652209        2.63486389753024        1.89519358409401   1.87605020407489E-009                       0                       0                       0                       0   1.87604931589647E-009   7.99272147490419E-016                       0       0.849879324436188       0.998819589614868                       0                       0                       0                       3 
                 0.5201     0.00225056264066016         1.9464377754704        1.72415273402654     -0.0012892747557497        7.35075612654474        2.63485159205377        1.89515033606769   1.87605020407489E-009                       0                       0                       0                       0   1.87604931589647E-009   7.99272147490419E-016                       0       0.849879324436188       0.998819589614868                       0                       0                       0                       3 
                 0.5201     0.00250062515628907        1.94647319048034         1.7243644616204    -0.00143534903461766          7.350899264268        2.63483935723278        1.89510703330577   1.87605020407489E-009                       0                       0                       0                       0   1.87604931589647E-009   7.99272147490419E-016                       0       0.849879324436188       0.998819589614868                       0                       0                       0                       3 
                 0.5201     0.00275068767191798        1.94654179444302        1.72445507727004    -0.00160029522101569        7.35096298850211        2.63484345710425        1.89504316464144   1.87605020407489E-009                       0                       0                       0                       0   1.87604931589647E-009   7.99272147490419E-016                       0       0.849879324436188       0.998819589614868                       0                       0                       0                       3 
                 0.5201     0.00300075018754689         1.9466037868406        1.72453309539994    -0.00175746339038611        7.35099861713915        2.63483973684497        1.89498013486387   1.87605020407489E-009                       0                       0                       0                       0   1.87604931589647E-009   7.99272147490419E-016                       0       0.849879324436188       0.998819589614868                       0                       0                       0                       3 
                 0.5201     0.00325081270317579        1.94666577923818        1.72461111352985    -0.00191463155975652        7.35103424577619        2.63483601658568         1.8949171050863   1.87605020407489E-009                       0                       0                       0                       0   1.87604931589647E-009   7.99272147490419E-016                       0       0.849879324436188       0.998819589614868                       0                       0                       0                       3 
                 0.5201      0.0035008752188047        1.94667370039698        1.72511698585729    -0.00202776651985633        7.35156219290417         2.6348690714832         1.8949332683825   4.34161462337102E-009                       0                       0                       0                       0   4.34161462337102E-009                       0                       0       0.180316135287285       0.998399555683136                       0                       0                       0                       4 
                 0.5201     0.00375093773443361        1.94677690182053        1.72531115477481    -0.00223493147235666        7.35175350008377        2.63489289545134        1.89484995603745   4.34161462337102E-009                       0                       0                       0                       0   4.34161462337102E-009                       0                       0       0.180316135287285       0.998399555683136                       0                       0                       0                       4 
                 0.5201     0.00400100025006252        1.94688010324408        1.72550532369232    -0.00244209642485699        7.35194480726337        2.63491671941948        1.89476664369241   4.34161462337102E-009                       0                       0                       0                       0   4.34161462337102E-009                       0                       0       0.180316135287285       0.998399555683136                       0                       0                       0                       4 
                 0.5201     0.00425106276569142        1.94697299440275        1.72570502204953    -0.00265689893744244        7.35217189865094        2.63495126415616        1.89470106646948   4.34161462337102E-009                       0                       0                       0                       0   4.34161462337102E-009                       0                       0       0.180316135287285       0.998399555683136                       0                       0                       0                       4 
                 0.5201     0.00450112528132033        1.94704393643686        1.72589186400285    -0.00287127166600322        7.35244173319441        2.63500396927974        1.89466990032787   4.34161462337102E-009                       0                       0                       0                       0   4.34161462337102E-009                       0                       0       0.180316135287285       0.998399555683136                       0                       0                       0                       4 
                 0.5201     0.00475118779694924        1.94711476448983        1.72607712586463    -0.00308461665236221        7.35270973509988        2.63505648219982        1.89463870736717   4.34161462337102E-009                       0                       0                       0                       0   4.34161462337102E-009                       0                       0       0.180316135287285       0.998399555683136                       0                       0                       0                       4 
                 0.5201     0.00500125031257814        1.94718553780697         1.7262625567624    -0.00329834308927233        7.35297812408926        2.63510908026407        1.89460762924406   4.34161462337102E-009                       0                       0                       0                       0   4.34161462337102E-009                       0                       0       0.180316135287285       0.998399555683136                       0                       0                       0                       4 
                 0.5201     0.00525131282820705        1.94724277925835         1.7264484444768    -0.00356082929797822        7.35329972883974        2.63518056834214        1.89460336236928   4.34161462337102E-009                       0                       0                       0                       0   4.34161462337102E-009                       0                       0       0.180316135287285       0.998399555683136                       0                       0                       0                       4 
                 0.5201     0.00550137534383596         1.9472982969739        1.72661267246138    -0.00380559641073184        7.35360579170972        2.63525332802863        1.89460168109825   4.34161462337102E-009                       0                       0                       0                       0   4.34161462337102E-009                       0                       0       0.180316135287285       0.998399555683136                       0                       0                       0                       4 
                 0.5201     0.00575143785946487        1.94735381468944        1.72677690044596    -0.00405036352348546         7.3539118545797        2.63532608771511        1.89459999982722   4.34161462337102E-009                       0                       0                       0                       0   4.34161462337102E-009                       0                       0       0.180316135287285       0.998399555683136                       0                       0                       0                       4 
                 0.5201     0.00600150037509377        1.94741319067086         1.7269526043637    -0.00436254470592549        7.35423739437196        2.63540303738175        1.89459755308709   4.34161462337102E-009                       0                       0                       0                       0   4.34161462337102E-009                       0                       0       0.180316135287285       0.998399555683136                       0                       0                       0                       4 
                 0.5201     0.00625156289072268        1.94747031811398        1.72708370773192    -0.00466397625552374        7.35454331415505        2.63548760173713        1.89460277575879   4.34161462337102E-009                       0                       0                       0                       0   4.34161462337102E-009                       0                       0       0.180316135287285       0.998399555683136                       0                       0                       0                       4 
                 0.5201     0.00650162540635159         1.9475274455571        1.72721481110014      -0.004965407805122        7.35484923393813        2.63557216609251        1.89460799843048   4.34161462337102E-009                       0                       0                       0                       0   4.34161462337102E-009                       0                       0       0.180316135287285       0.998399555683136                       0                       0                       0                       4 
                 0.5201     0.00675168792198049        1.94757249406281        1.72798512958246    -0.00562357199521817        7.35534459027844        2.63550318284969        1.89451457353682   5.68222091601456E-009                       0                       0                       0                       0   5.68222091601456E-009                       0                       0     0.00845012720674276       0.998025298118591                       0                       0                       0                       4 
                 0.5201      0.0070017504376094         1.9476250215925        1.72816252613993    -0.00587194078344898        7.35569267506349        2.63558745117512        1.89452403493167   5.68222091601456E-009                       0                       0                       0                       0   5.68222091601456E-009                       0                       0     0.00845012720674276       0.998025298118591                       0                       0                       0                       4 
                 0.5201     0.00725181295323831        1.94767646136026         1.7283216388569    -0.00610854026789227        7.35602563845593        2.63567201557775        1.89453476645485   5.68222091601456E-009                       0                       0                       0                       0   5.68222091601456E-009                       0                       0     0.00845012720674276       0.998025298118591                       0                       0                       0                       4 
                 0.5201     0.00750187546886722        1.94772841709111        1.72848484252195    -0.00634820054505738        7.35636147814764        2.63575635084143        1.89454483149152   5.68222091601456E-009                       0                       0                       0                       0   5.68222091601456E-009                       0                       0     0.00845012720674276       0.998025298118591                       0                       0                       0                       4 
                 0.5201     0.00775193798449612         1.9478279350407        1.72905034561112    -0.00688937765419743        7.35695673531662         2.6358084102201        1.89448546094318   5.68222091601456E-009                       0                       0                       0                       0   5.68222091601456E-009                       0                       0     0.00845012720674276       0.998025298118591                       0                       0                       0                       4 
                 0.5201     0.00800200050012503         1.9479140733038        1.72952603773018    -0.00736369647518956        7.35747370798204         2.6358592060397        1.89443820652226   5.68222091601456E-009                       0                       0                       0                       0   5.68222091601456E-009                       0                       0     0.00845012720674276       0.998025298118591                       0                       0                       0                       4 
                 0.5201     0.00825206301575394         1.9480002115669        1.73000172984924    -0.00783801529618169        7.35799068064746         2.6359100018593        1.89439095210135   5.68222091601456E-009                       0                       0                       0                       0   5.68222091601456E-009                       0                       0     0.00845012720674276       0.998025298118591                       0                       0                       0                       4 
                 0.5201     0.00850212553138285         1.9481486075987        1.73071855319513    -0.00847779001520802        7.35866788261555        2.63594820406116        1.89427412890355   5.68222091601456E-009                       0                       0                       0                       0   5.68222091601456E-009                       0                       0     0.00845012720674276       0.998025298118591                       0                       0                       0                       4 
                 0.5201     0.00875218804701175        1.94829734659305         1.7314609246116    -0.00911162207489664         7.3593352406431        2.63597360201353        1.89414778303341   5.68222091601456E-009                       0                       0                       0                       0   5.68222091601456E-009                       0                       0     0.00845012720674276       0.998025298118591                       0                       0                       0                       4 
                 0.5201     0.00900225056264066         1.9484460855874        1.73220329602807    -0.00974545413458527        7.36000259867065        2.63599899996591        1.89402143716327   5.68222091601456E-009                       0                       0                       0                       0   5.68222091601456E-009                       0                       0     0.00845012720674276       0.998025298118591                       0                       0                       0                       4 
                 0.5201     0.00925231307826957        1.94864843869464        1.73304620598067     -0.0104477502457008        7.36074214444289        2.63602535355419        1.89384373151519   5.68222091601456E-009                       0                       0                       0                       0   5.68222091601456E-009                       0                       0     0.00845012720674276       0.998025298118591                       0                       0                       0                       4 
                 0.5201     0.00950237559389847        1.94889157648889        1.73400976536888     -0.0111697022621875        7.36153166377302        2.63603506545041        1.89361446416848   5.68222091601456E-009                       0                       0                       0                       0   5.68222091601456E-009                       0                       0     0.00845012720674276       0.998025298118591                       0                       0                       0                       4 
                 0.5201     0.00975243810952738        1.94913092509373        1.73496891260273     -0.0118848382705508        7.36231577996166        2.63604365066415        1.89338806492771   5.68222091601456E-009                       0                       0                       0                       0   5.68222091601456E-009                       0                       0     0.00845012720674276       0.998025298118591                       0                       0                       0                       4 
                 0.5201      0.0100025006251563        1.94935666539844        1.73535147552185     -0.0125430127130479        7.36291468754336        2.63618135155936        1.89326770980933   1.45068055346087E-008                       0                       0                       0                       0   1.45068055346087E-008                       0                       0     0.00745603581890464       0.997384428977966                       0                       0                       0                       4 
                 0.5201      0.0102525631407852         1.9496271663393        1.73667408557629     -0.0135124063444056         7.3640680497997        2.63621102993303        1.89302640069481   1.45068055346087E-008                       0                       0                       0                       0   1.45068055346087E-008                       0                       0     0.00745603581890464       0.997384428977966                       0                       0                       0                       4 
                 0.5201      0.0105026256564141        1.94987159452895        1.73796666104893     -0.0144403324088579        7.36520344431737        2.63624079200734        1.89281041102569   1.45068055346087E-008                       0                       0                       0                       0   1.45068055346087E-008                       0                       0     0.00745603581890464       0.997384428977966                       0                       0                       0                       4 
                 0.5201       0.010752688172043        1.95011602271859        1.73925923652157     -0.0153682584733101        7.36633883883504        2.63627055408165        1.89259442135658   1.45068055346087E-008                       0                       0                       0                       0   1.45068055346087E-008                       0                       0     0.00745603581890464       0.997384428977966                       0                       0                       0                       4 
                 0.5201      0.0110027506876719        1.95037720864192        1.74049221253785     -0.0163498227944311        7.36741545655431        2.63629908801384        1.89236151568734   1.45068055346087E-008                       0                       0                       0                       0   1.45068055346087E-008                       0                       0     0.00745603581890464       0.997384428977966                       0                       0                       0                       4 
                 0.5201      0.0112528132033008        1.95061974093019        1.74167489727457     -0.0173194145332689        7.36845784458976         2.6363290647185        1.89214777963683   1.45068055346087E-008                       0                       0                       0                       0   1.45068055346087E-008                       0                       0     0.00745603581890464       0.997384428977966                       0                       0                       0                       4 
                 0.5201      0.0115028757189297        1.95086227321846        1.74285758201128     -0.0182890062721068         7.3695002326252        2.63635904142315        1.89193404358633   1.45068055346087E-008                       0                       0                       0                       0   1.45068055346087E-008                       0                       0     0.00745603581890464       0.997384428977966                       0                       0                       0                       4 
                 0.5201      0.0117529382345586        1.95112218196935        1.74395407554423       -0.01927000237511        7.37045662691669        2.63638736440197        1.89170238805875   1.45068055346087E-008                       0                       0                       0                       0   1.45068055346087E-008                       0                       0     0.00745603581890464       0.997384428977966                       0                       0                       0                       4 
                 0.5201      0.0120030007501875        1.95139300611155        1.74488953355405     -0.0202530681258871        7.37127328593264        2.63641863261446        1.89146233573446   1.45068055346087E-008                       0                       0                       0                       0   1.45068055346087E-008                       0                       0     0.00745603581890464       0.997384428977966                       0                       0                       0                       4 
                 0.5201      0.0122530632658165        1.95166254605139        1.74582514299355     -0.0212349946817506        7.37209131371556        2.63645025481842        1.89122377410754   1.45068055346087E-008                       0                       0                       0                       0   1.45068055346087E-008                       0                       0     0.00745603581890464       0.997384428977966                       0                       0                       0                       4 
                 0.5201      0.0125031257814454        1.95193280540716        1.74675541650412     -0.0222164327661054        7.37290413702281        2.63648180280047        1.89098446802599   1.45068055346087E-008                       0                       0                       0                       0   1.45068055346087E-008                       0                       0     0.00745603581890464       0.997384428977966                       0                       0                       0                       4 
                 0.5201      0.0127531882970743        1.95225887223443        1.74729024408665     -0.0231728065680801        7.37334268004119         2.6365131399329         1.8906912545398   1.45068055346087E-008                       0                       0                       0                       0   1.45068055346087E-008                       0                       0     0.00745603581890464       0.997384428977966                       0                       0                       0                       4 
                 0.5201      0.0130032508127032        1.95258428760706        1.74784159366765     -0.0241377376425426        7.37380456454063        2.63654805313546        1.89040114585869   1.45068055346087E-008                       0                       0                       0                       0   1.45068055346087E-008                       0                       0     0.00745603581890464       0.997384428977966                       0                       0                       0                       4 
                 0.5201      0.0132533133283321        1.95290970297969        1.74839294324865      -0.025102668717005        7.37426644904007        2.63658296633802        1.89011103717758   1.45068055346087E-008                       0                       0                       0                       0   1.45068055346087E-008                       0                       0     0.00745603581890464       0.997384428977966                       0                       0                       0                       4 
                 0.5201       0.013503375843961        1.95312025229295        1.74940112415031     -0.0257048426967748         7.3751852210023        2.63661965446463        1.88993373443808   6.25684989929987E-011                       0                       0                       0                       0   6.25684989929987E-011                       0                       0       0.100627943873405       0.998520076274872                       0                       0                       0                       4 