VARIABLES = "x"
 "y"
 "rho"
 "rhoU"
 "rhoV"
 "rhoE"
 "P"
 "T"
 "ABV"
 "error"
 "error_hMLP"
 "error_BD"
 "ABV_P"
 "ABV_I"
 "ABV_I_BD"
 "ABV_D"
 "Ducros"
 "Sk"
 "trouble_vertex"
 "trouble_face"
 "hMLP_penalty"
 "BD_penalty"
ZONE
DT=(DOUBLE,DOUBLE,DOUBLE,DOUBLE,DOUBLE,DOUBLE,DOUBLE,DOUBLE,DOUBLE,DOUBLE,DOUBLE,DOUBLE,DOUBLE,DOUBLE,DOUBLE,DOUBLE,DOUBLE,DOUBLE,DOUBLE,DOUBLE,DOUBLE,DOUBLE)
                 1.0501                       0        1.87766384749981        1.83599482677938  -5.93246540841462E-006        7.11848071480037        2.48834221059547        1.85532627832498                       0                       0                       0                       0                       0                       0                       0                       0       0.916949152946472       0.998142004013062                       0                       0                       0                       3 
                 1.0501    0.000250062515628907        1.87766151339444        1.83626063308963    0.000853502927201232        7.11868756482833        2.48832031829679        1.85531223344954                       0                       0                       0                       0                       0                       0                       0                       0       0.916949152946472       0.998142004013062                       0                       0                       0                       3 
                 1.0501    0.000500125031257815        1.87765936124758        1.83652671233767     0.00171440736267014        7.11889546830035        2.48829876118485        1.85529826997659                       0                       0                       0                       0                       0                       0                       0                       0       0.916949152946472       0.998142004013062                       0                       0                       0                       3 
                 1.0501    0.000750187546886722        1.87765989728716        1.83679378630844     0.00258527655792599        7.11910552848248        2.48827807135262        1.85528237793806                       0                       0                       0                       0                       0                       0                       0                       0       0.916949152946472       0.998142004013062                       0                       0                       0                       3 
                 1.0501     0.00100025006251563         1.8776945869222         1.8370347223235     0.00343290296302477        7.11917184926965        2.48821625780341        1.85520201227544                       0                       0                       0                       0                       0                       0                       0                       0       0.916949152946472       0.998142004013062                       0                       0                       0                       3 
                 1.0501     0.00125031257814454        1.87772950997843        1.83727603055073     0.00428246483935967        7.11923953273188        2.48815488586185        1.85512174124304                       0                       0                       0                       0                       0                       0                       0                       0       0.916949152946472       0.998142004013062                       0                       0                       0                       3 
                 1.0501     0.00150037509377344         1.8777683734589        1.83751728850976     0.00514061255873774        7.11930324718951        2.48809265414122        1.85503692271558                       0                       0                       0                       0                       0                       0                       0                       0       0.916949152946472       0.998142004013062                       0                       0                       0                       3 
                 1.0501     0.00175043760940235        1.87784008682872        1.83773343469904     0.00597642972090156        7.11922871679619        2.48799083886308        1.85489023627731                       0                       0                       0                       0                       0                       0                       0                       0       0.916949152946472       0.998142004013062                       0                       0                       0                       3 
                 1.0501     0.00200050012503126        1.87791208987054        1.83795002713978     0.00681464878751666        7.11915590877692          2.487889587271        1.85474366727364                       0                       0                       0                       0                       0                       0                       0                       0       0.916949152946472       0.998142004013062                       0                       0                       0                       3 
                 1.0501     0.00225056264066016        1.87796809448665        1.83801471973339     0.00764794049062302        7.11889679149225        2.48777010143558         1.8545992316789   2.38155606346879E-009                       0                       0                       0                       0   2.38155606346879E-009                       0                       0       0.965891897678375       0.997561097145081                       0                       0                       0                       4 
                 1.0501     0.00250062515628907         1.8779651164899        1.83810627301172     0.00846807142523119        7.11865436645988        2.48763528671804        1.85450164192069   2.38155606346879E-009                       0                       0                       0                       0   2.38155606346879E-009                       0                       0       0.965891897678375       0.997561097145081                       0                       0                       0                       4 
                 1.0501     0.00275068767191798        1.87796352218595          1.838199724193     0.00929123156166598        7.11841968262774        2.48750305240058        1.85440462246828   2.38155606346879E-009                       0                       0                       0                       0   2.38155606346879E-009                       0                       0       0.965891897678375       0.997561097145081                       0                       0                       0                       4 
                 1.0501     0.00300075018754689        1.87795697094935        1.83829086019273      0.0101169893516451        7.11818435684937         2.4873703446367        1.85431218151483   2.38155606346879E-009                       0                       0                       0                       0   2.38155606346879E-009                       0                       0       0.965891897678375       0.997561097145081                       0                       0                       0                       4 
                 1.0501     0.00325081270317579        1.87789688785285        1.83833375944315      0.0109011085965115        7.11780172451077        2.48718707710725        1.85423487432904   2.38155606346879E-009                       0                       0                       0                       0   2.38155606346879E-009                       0                       0       0.965891897678375       0.997561097145081                       0                       0                       0                       4 
                 1.0501      0.0035008752188047        1.87783843519393        1.83837885434951      0.0116887496714731        7.11742804870928        2.48700685306129        1.85415821931829   2.38155606346879E-009                       0                       0                       0                       0   2.38155606346879E-009                       0                       0       0.965891897678375       0.997561097145081                       0                       0                       0                       4 
                 1.0501     0.00375093773443361         1.8777724770279        1.83841916460624       0.012476642878172        7.11704582951979        2.48682361861885        1.85408671699851   2.38155606346879E-009                       0                       0                       0                       0   2.38155606346879E-009                       0                       0       0.965891897678375       0.997561097145081                       0                       0                       0                       4 
                 1.0501     0.00400100025006252        1.87765536935485        1.83841345007374      0.0132247505125505        7.11652299003928        2.48659213980944        1.85402977288945   2.38155606346879E-009                       0                       0                       0                       0   2.38155606346879E-009                       0                       0       0.965891897678375       0.997561097145081                       0                       0                       0                       4 
                 1.0501     0.00425106276569142        1.87754009538174        1.83841023829386      0.0139768724630051        7.11601035980708        2.48636410538234        1.85397357217225   2.38155606346879E-009                       0                       0                       0                       0   2.38155606346879E-009                       0                       0       0.965891897678375       0.997561097145081                       0                       0                       0                       4 
                 1.0501     0.00450112528132033        1.87738705194593        1.83829540671474      0.0146837388414849        7.11527501760901        2.48608339907999        1.85391534560609   3.28177103547933E-011                       0                       0                       0                       0   3.28177103547933E-011                       0                       0       0.986302495002747       0.997340381145477                       0                       0                       0                       4 
                 1.0501     0.00475118779694924        1.87718917607295        1.83796183073119      0.0153904942163139         7.1143632673999        2.48580910134758        1.85390617015377   3.28177103547933E-011                       0                       0                       0                       0   3.28177103547933E-011                       0                       0       0.986302495002747       0.997340381145477                       0                       0                       0                       4 
                 1.0501     0.00500125031257814         1.8769973233127        1.83763640611959      0.0161062564398532         7.1134846234455        2.48554595958841        1.85389938725432   3.28177103547933E-011                       0                       0                       0                       0   3.28177103547933E-011                       0                       0       0.986302495002747       0.997340381145477                       0                       0                       0                       4 
                 1.0501     0.00525131282820705        1.87679782339126        1.83729319866297      0.0168042670392667        7.11253707308327        2.48526070867342        1.85388370328332   3.28177103547933E-011                       0                       0                       0                       0   3.28177103547933E-011                       0                       0       0.986302495002747       0.997340381145477                       0                       0                       0                       4 
                 1.0501     0.00550137534383596        1.87654533763843        1.83685760641105      0.0174054750953042        7.11122353547215        2.48485521832509        1.85383066276336   3.28177103547933E-011                       0                       0                       0                       0   3.28177103547933E-011                       0                       0       0.986302495002747       0.997340381145477                       0                       0                       0                       4 
                 1.0501     0.00575143785946487        1.87629953328343        1.83643105642039      0.0180166741460154        7.10994678412526        2.48446213408265          1.853780245425   3.28177103547933E-011                       0                       0                       0                       0   3.28177103547933E-011                       0                       0       0.986302495002747       0.997340381145477                       0                       0                       0                       4 
                 1.0501     0.00600150037509377        1.87604268999498        1.83598110002783      0.0186041653700003          7.108578810516        2.48403961996442        1.85371872163892   3.28177103547933E-011                       0                       0                       0                       0   3.28177103547933E-011                       0                       0       0.986302495002747       0.997340381145477                       0                       0                       0                       4 
                 1.0501     0.00625156289072268        1.87573555399474        1.83544353154103      0.0190998262371429        7.10686364590247        2.48350309780047        1.85362181604556   3.28177103547933E-011                       0                       0                       0                       0   3.28177103547933E-011                       0                       0       0.986302495002747       0.997340381145477                       0                       0                       0                       4 
                 1.0501     0.00650162540635159        1.87543575766935        1.83491589619387      0.0196064629799317        7.10518889187754        2.48298020403972        1.85352780903048   3.28177103547933E-011                       0                       0                       0                       0   3.28177103547933E-011                       0                       0       0.986302495002747       0.997340381145477                       0                       0                       0                       4 
                 1.0501     0.00675168792198049        1.87510749645788        1.83437440416769       0.020060735630991        7.10335212865672        2.48239268724561        1.85341361773116     7.754363991197E-012                       0                       0                       0                       0     7.754363991197E-012                       0                       0       0.946937680244446       0.995858669281006                       0                       0                       0                       4 
                 1.0501      0.0070017504376094        1.87470051685579        1.83375711354014       0.020405170364958        7.10111895234121        2.48166154857157        1.85326994946463     7.754363991197E-012                       0                       0                       0                       0     7.754363991197E-012                       0                       0       0.946937680244446       0.995858669281006                       0                       0                       0                       4 
                 1.0501     0.00725181295323831        1.87430735362136        1.83315792457076      0.0207685861536414        7.09896113803107        2.48095604775621        1.85313173016662     7.754363991197E-012                       0                       0                       0                       0     7.754363991197E-012                       0                       0       0.946937680244446       0.995858669281006                       0                       0                       0                       4 
                 1.0501     0.00750187546886722        1.87386993754696        1.83251086817907      0.0210652406412023        7.09656018104442        2.48016382508998        1.85297237058638     7.754363991197E-012                       0                       0                       0                       0     7.754363991197E-012                       0                       0       0.946937680244446       0.995858669281006                       0                       0                       0                       4 
                 1.0501     0.00775193798449612        1.87333281139755        1.83174982879857      0.0212150856119626        7.09361244625817        2.47917899320803        1.85276761312416     7.754363991197E-012                       0                       0                       0                       0     7.754363991197E-012                       0                       0       0.946937680244446       0.995858669281006                       0                       0                       0                       4 
                 1.0501     0.00800200050012503        1.87281063883474        1.83100836102407      0.0213854739594377        7.09074627648975        2.47822190942528        1.85256879311545     7.754363991197E-012                       0                       0                       0                       0     7.754363991197E-012                       0                       0       0.946937680244446       0.995858669281006                       0                       0                       0                       4 
                 1.0501     0.00825206301575394        1.87223700581978        1.83021059549311      0.0214786249887229         7.0875975646664        2.47716429969535        1.85234553479045     7.754363991197E-012                       0                       0                       0                       0     7.754363991197E-012                       0                       0       0.946937680244446       0.995858669281006                       0                       0                       0                       4 
                 1.0501     0.00850212553138285        1.87156969371883        1.82930576825407      0.0214338802525335        7.08393527601396        2.47592577616268        1.85207944700783     7.754363991197E-012                       0                       0                       0                       0     7.754363991197E-012                       0                       0       0.946937680244446       0.995858669281006                       0                       0                       0                       4 
                 1.0501     0.00875218804701175        1.87091847233201        1.82842202243194      0.0214112410894624        7.08036075489314        2.47471711080007        1.85181976969687     7.754363991197E-012                       0                       0                       0                       0     7.754363991197E-012                       0                       0       0.946937680244446       0.995858669281006                       0                       0                       0                       4 
                 1.0501     0.00900225056264066        1.87026913518619        1.82752602387113      0.0213908505325005        7.07677641731486        2.47350960985847         1.8515587286084   8.72323480810566E-013                       0                       0                       0                       0   8.72323480810566E-013                       0                       0       0.999841511249542       0.998023748397827                       0                       0                       0                       4 
                 1.0501     0.00925231307826957        1.86943336416116        1.82641454660128      0.0211152920557238        7.07222491004743         2.4719649948988        1.85122953913495   8.72323480810566E-013                       0                       0                       0                       0   8.72323480810566E-013                       0                       0       0.999841511249542       0.998023748397827                       0                       0                       0                       4 
                 1.0501     0.00950237559389847        1.86860148553881        1.82530832062024      0.0208447934145135        7.06769450006308        2.47042751984934        1.85090191583535   8.72323480810566E-013                       0                       0                       0                       0   8.72323480810566E-013                       0                       0       0.999841511249542       0.998023748397827                       0                       0                       0                       4 
                 1.0501     0.00975243810952738        1.86774879893545        1.82417595790937       0.020542859067345        7.06305265511123        2.46885182064767        1.85056581811664   8.72323480810566E-013                       0                       0                       0                       0   8.72323480810566E-013                       0                       0       0.999841511249542       0.998023748397827                       0                       0                       0                       4 
                 1.0501      0.0100025006251563        1.86687153715895        1.82301244616652      0.0202044331479569        7.05827900531403        2.46723098504463        1.85021972649418   8.72323480810566E-013                       0                       0                       0                       0   8.72323480810566E-013                       0                       0       0.999841511249542       0.998023748397827                       0                       0                       0                       4 
                 1.0501      0.0102525631407852         1.8659984001713        1.82185453235141      0.0198714010651889        7.05352774722778         2.4656177115545        1.84987530442912   8.72323480810566E-013                       0                       0                       0                       0   8.72323480810566E-013                       0                       0       0.999841511249542       0.998023748397827                       0                       0                       0                       4 
                 1.0501      0.0105026256564141        1.86510235876879        1.82066778096083      0.0195038904753876        7.04865390228425        2.46396236150858        1.84952145645274   8.72323480810566E-013                       0                       0                       0                       0   8.72323480810566E-013                       0                       0       0.999841511249542       0.998023748397827                       0                       0                       0                       4 
                 1.0501       0.010752688172043        1.86418356715277        1.81945215578694       0.019102597617928        7.04365811623842        2.46226522690954        1.84915826192186   8.72323480810566E-013                       0                       0                       0                       0   8.72323480810566E-013                       0                       0       0.999841511249542       0.998023748397827                       0                       0                       0                       4 
                 1.0501      0.0110027506876719        1.86326918179481        1.81824247515055      0.0187070321626488        7.03868631692283        2.46057617479568        1.84879686639575   8.72323480810566E-013                       0                       0                       0                       0   8.72323480810566E-013                       0                       0       0.999841511249542       0.998023748397827                       0                       0                       0                       4 
                 1.0501      0.0112528132033008        1.86241036930067        1.81711969780259      0.0183793640042888        7.03400660465063        2.45898021919027        1.84844969362237                       0                       0                       0                       0                       0                       0                       0                       0       0.999962091445923        0.99571430683136                       0                       0                       0                       4 
                 1.0501      0.0115028757189297        1.86154087446406        1.81597735398921      0.0180333327466491        7.02928205157197        2.45737185898293        1.84810336054064                       0                       0                       0                       0                       0                       0                       0                       0       0.999962091445923        0.99571430683136                       0                       0                       0                       4 
                 1.0501      0.0117529382345586        1.86065010553461        1.81480843825441      0.0176596060209421        7.02444315369336        2.45572431691846        1.84774869441606                       0                       0                       0                       0                       0                       0                       0                       0       0.999962091445923        0.99571430683136                       0                       0                       0                       4 
                 1.0501      0.0120030007501875        1.85985099322964        1.81375409670678      0.0174057280557818        7.02010244868287        2.45424830146152        1.84743153570193                       0                       0                       0                       0                       0                       0                       0                       0       0.999962091445923        0.99571430683136                       0                       0                       0                       4 
                 1.0501      0.0122530632658165        1.85911824482711        1.81278270605761      0.0172385898223019        7.01612207307891        2.45289629051407        1.84714142238725                       0                       0                       0                       0                       0                       0                       0                       0       0.999962091445923        0.99571430683136                       0                       0                       0                       4 
                 1.0501      0.0125031257814454        1.85836310837123        1.81178322116723      0.0170422310305646        7.01202093590759        2.45150282236509        1.84684240043235                       0                       0                       0                       0                       0                       0                       0                       0       0.999962091445923        0.99571430683136                       0                       0                       0                       4 
                 1.0501      0.0127531882970743        1.85770716179122        1.81090767546777      0.0169755321316475        7.00845866456855        2.45029494295725        1.84658421975593                       0                       0                       0                       0                       0                       0                       0                       0       0.999962091445923        0.99571430683136                       0                       0                       0                       4 
                 1.0501      0.0130032508127032        1.85711124105844        1.81010715850287      0.0169872887939465        7.00522230953547        2.44919928264725        1.84635068869081                       0                       0                       0                       0                       0                       0                       0                       0       0.999962091445923        0.99571430683136                       0                       0                       0                       4 
                 1.0501      0.0132533133283321        1.85649173259548        1.80927708029169      0.0169682986010562        7.00185900962724        2.44806000035312        1.84610775316703                       0                       0                       0                       0                       0                       0                       0                       0       0.999962091445923        0.99571430683136                       0                       0                       0                       4 
                 1.0501       0.013503375843961        1.85596392395226        1.80857602872678       0.017050197490883         6.9989693679482        2.44707685252578        1.84589124724736                       0                       0                       0                       0                       0                       0                       0                       0       0.999972283840179       0.996880531311035                       0                       0                       0                       4 