VARIABLES = "x"
 "y"
 "rho"
 "rhoU"
 "rhoV"
 "rhoE"
 "P"
 "T"
 "ABV"
 "error"
 "error_hMLP"
 "error_BD"
 "ABV_P"
 "ABV_I"
 "ABV_I_BD"
 "ABV_D"
 "Ducros"
 "Sk"
 "trouble_vertex"
 "trouble_face"
 "hMLP_penalty"
 "BD_penalty"
ZONE
DT=(DOUBLE,DOUBLE,DOUBLE,DOUBLE,DOUBLE,DOUBLE,DOUBLE,DOUBLE,DOUBLE,DOUBLE,DOUBLE,DOUBLE,DOUBLE,DOUBLE,DOUBLE,DOUBLE,DOUBLE,DOUBLE,DOUBLE,DOUBLE,DOUBLE,DOUBLE)
                 0.5201                       0        1.94412062642159        1.72568375095881   7.62188301041058E-005        7.33664312045267        2.62829922928517        1.89269073553653   1.24666969456011E-011                       0                       0                       0                       0   1.24666926087924E-011   4.29512747246578E-018                       0       0.192250862717628       0.997721195220947                       0                       0                       0                       3 
                 0.5201    0.000250062515628907        1.94413450221197           1.72579464471   -0.000106037091882478        7.33672695497576         2.6282955752969        1.89267454984881   1.24666969456011E-011                       0                       0                       0                       0   1.24666926087924E-011   4.29512747246578E-018                       0       0.192250862717628       0.997721195220947                       0                       0                       0                       3 
                 0.5201    0.000500125031257815         1.9441477019803        1.72590128917967   -0.000283377003242807        7.33680969498695        2.62829291924596        1.89265970010945   1.24666969456011E-011                       0                       0                       0                       0   1.24666926087924E-011   4.29512747246578E-018                       0       0.192250862717628       0.997721195220947                       0                       0                       0                       3 
                 0.5201    0.000750187546886722         1.9441628720558        1.72601725460101   -0.000461539692606373        7.33689934931687        2.62829002298781         1.8926427614796   1.24666969456011E-011                       0                       0                       0                       0   1.24666926087924E-011   4.29512747246578E-018                       0       0.192250862717628       0.997721195220947                       0                       0                       0                       3 
                 0.5201     0.00100025006251563        1.94422717462928        1.72636385382487    -0.00065281950657097        7.33716326730726        2.62828254857577         1.8925748250137   1.24666969456011E-011                       0                       0                       0                       0   1.24666926087924E-011   4.29512747246578E-018                       0       0.192250862717628       0.997721195220947                       0                       0                       0                       3 
                 0.5201     0.00125031257814454        1.94429087960871        1.72670660512607   -0.000839647640574768         7.3374261358642        2.62827594869161        1.89250814203776   1.24666969456011E-011                       0                       0                       0                       0   1.24666926087924E-011   4.29512747246578E-018                       0       0.192250862717628       0.997721195220947                       0                       0                       0                       3 
                 0.5201     0.00150037509377344        1.94435852216123        1.72706799528651       -0.00102812133046        7.33770282089358        2.62826886231193        1.89243727215977   1.24666969456011E-011                       0                       0                       0                       0   1.24666926087924E-011   4.29512747246578E-018                       0       0.192250862717628       0.997721195220947                       0                       0                       0                       3 
                 0.5201     0.00175043760940235        1.94447320017338        1.72765028688243    -0.00122842505902166        7.33814670571275        2.62825750917508        1.89231748529468   1.24666969456011E-011                       0                       0                       0                       0   1.24666926087924E-011   4.29512747246578E-018                       0       0.192250862717628       0.997721195220947                       0                       0                       0                       3 
                 0.5201     0.00200050012503126        1.94458732986856        1.72822914496968    -0.00142474145427981        7.33858970278063        2.62824696545853         1.8921988081187   1.24666969456011E-011                       0                       0                       0                       0   1.24666926087924E-011   4.29512747246578E-018                       0       0.192250862717628       0.997721195220947                       0                       0                       0                       3 
                 0.5201     0.00225056264066016        1.94464434029899        1.72782061692857    -0.00177735133809449        7.33806675426304        2.62819200293145        1.89210376194217   7.86907275451831E-011                       0                       0                       0                       0   7.86907067285014E-011   1.96305642703247E-017                       0      0.0405403785407543       0.997263848781586                       0                       0                       0                       4 
                 0.5201     0.00250062515628907         1.9447447453086        1.72826916101613    -0.00187479322472776        7.33842824399994        2.62819291798951        1.89200674554563   7.86907275451831E-011                       0                       0                       0                       0   7.86907067285014E-011   1.96305642703247E-017                       0      0.0405403785407543       0.997263848781586                       0                       0                       0                       4 
                 0.5201     0.00275068767191798        1.94484390455158        1.72869996446426    -0.00196403605609642        7.33877819886075        2.62819533258147        1.89191201305456   7.86907275451831E-011                       0                       0                       0                       0   7.86907067285014E-011   1.96305642703247E-017                       0      0.0405403785407543       0.997263848781586                       0                       0                       0                       4 
                 0.5201     0.00300075018754689        1.94493292644168        1.72910036193489    -0.00206443474558967        7.33910171268352        2.62819637282324        1.89182615302773   7.86907275451831E-011                       0                       0                       0                       0   7.86907067285014E-011   1.96305642703247E-017                       0      0.0405403785407543       0.997263848781586                       0                       0                       0                       4 
                 0.5201     0.00325081270317579        1.94496176580793        1.72928348798022    -0.00220601638526642        7.33924646148251        2.62819368263151        1.89179612063341   7.86907275451831E-011                       0                       0                       0                       0   7.86907067285014E-011   1.96305642703247E-017                       0      0.0405403785407543       0.997263848781586                       0                       0                       0                       4 
                 0.5201      0.0035008752188047        1.94498953361542        1.72945122163475    -0.00234047960360846        7.33938119571365        2.62819231436274        1.89176807112352   7.86907275451831E-011                       0                       0                       0                       0   7.86907067285014E-011   1.96305642703247E-017                       0      0.0405403785407543       0.997263848781586                       0                       0                       0                       4 
                 0.5201     0.00375093773443361        1.94500464492151        1.72958094017106    -0.00248888764942429        7.33948290901491        2.62818922815474        1.89175111220577   7.86907275451831E-011                       0                       0                       0                       0   7.86907067285014E-011   1.96305642703247E-017                       0      0.0405403785407543       0.997263848781586                       0                       0                       0                       4 
                 0.5201     0.00400100025006252        1.94496197893071        1.72949861949948    -0.00267460897609995        7.33941107787643        2.62818289228642        1.89178809554997   7.86907275451831E-011                       0                       0                       0                       0   7.86907067285014E-011   1.96305642703247E-017                       0      0.0405403785407543       0.997263848781586                       0                       0                       0                       4 
                 0.5201     0.00425106276569142         1.9449183955596         1.7294032431472    -0.00285429252493698        7.33933075247595        2.62817766067216        1.89182676925231   7.86907275451831E-011                       0                       0                       0                       0   7.86907067285014E-011   1.96305642703247E-017                       0      0.0405403785407543       0.997263848781586                       0                       0                       0                       4 
                 0.5201     0.00450112528132033        1.94500019196192        1.73031818706454     -0.0033283677321804        7.33985305954082        2.62807366674657        1.89167230503453   7.63056839936382E-011                       0                       0                       0                       0   7.63056562380626E-011   2.68145981118457E-017                       0      0.0368326529860497       0.997258543968201                       0                       0                       0                       4 
                 0.5201     0.00475118779694924        1.94492029444865        1.73023223975691      -0.003439706243972        7.33982258084027        2.62807934423372         1.8917541259857   7.63056839936382E-011                       0                       0                       0                       0   7.63056562380626E-011   2.68145981118457E-017                       0      0.0368326529860497       0.997258543968201                       0                       0                       0                       4 
                 0.5201     0.00500125031257814        1.94483674954072         1.7301207258167    -0.00353625088835323        7.33977670357869         2.6280873928761        1.89184121229628   7.63056839936382E-011                       0                       0                       0                       0   7.63056562380626E-011   2.68145981118457E-017                       0      0.0368326529860497       0.997258543968201                       0                       0                       0                       4 
                 0.5201     0.00525131282820705         1.9447736481532         1.7300842813875    -0.00368669087558351        7.33977978006238        2.62809148264967        1.89190555638861   7.63056839936382E-011                       0                       0                       0                       0   7.63056562380626E-011   2.68145981118457E-017                       0      0.0368326529860497       0.997258543968201                       0                       0                       0                       4 
                 0.5201     0.00550137534383596        1.94474921552978        1.73012910450162    -0.00391324199365043        7.33984220618344         2.6280964588443        1.89193290905746   7.63056839936382E-011                       0                       0                       0                       0   7.63056562380626E-011   2.68145981118457E-017                       0      0.0368326529860497       0.997258543968201                       0                       0                       0                       4 
                 0.5201     0.00575143785946487        1.94472193064926        1.73015393454776    -0.00412822431914705        7.33989259065308        2.62810330018602        1.89196437922939   7.63056839936382E-011                       0                       0                       0                       0   7.63056562380626E-011   2.68145981118457E-017                       0      0.0368326529860497       0.997258543968201                       0                       0                       0                       4 
                 0.5201     0.00600150037509377         1.9447180097145        1.73026458239781    -0.00440480122538493        7.33999897075328        2.62810556847017        1.89196983405516   7.63056839936382E-011                       0                       0                       0                       0   7.63056562380626E-011   2.68145981118457E-017                       0      0.0368326529860497       0.997258543968201                       0                       0                       0                       4 
                 0.5201     0.00625156289072268        1.94474900565479        1.73044022029384    -0.00474656508805103        7.34015446279266        2.62810976894852        1.89194271057742   7.63056839936382E-011                       0                       0                       0                       0   7.63056562380626E-011   2.68145981118457E-017                       0      0.0368326529860497       0.997258543968201                       0                       0                       0                       4 
                 0.5201     0.00650162540635159        1.94477794050597        1.73060143449942    -0.00507998507675514        7.34030126993743        2.62811532250827        1.89191856466545   7.63056839936382E-011                       0                       0                       0                       0   7.63056562380626E-011   2.68145981118457E-017                       0      0.0368326529860497       0.997258543968201                       0                       0                       0                       4 
                 0.5201     0.00675168792198049        1.94476465524885        1.73062431120024    -0.00562084118401002        7.34024070835017        2.62808036324551         1.8919063323741   6.30382551713993E-011                       0                       0                       0                       0   6.30380955768395E-011   1.58664186741536E-016                       0     0.00593871809542179       0.996446132659912                       1                       0                       0                       4 
                 0.5201      0.0070017504376094        1.94481270214093        1.73114073201664     -0.0060329343167509        7.34067430500661        2.62807703902162        1.89185720117885   6.30382551713993E-011                       0                       0                       0                       0   6.30380955768395E-011   1.58664186741536E-016                       0     0.00593871809542179       0.996446132659912                       1                       0                       0                       4 
                 0.5201     0.00725181295323831        1.94485769405185        1.73164514043476    -0.00643941417988585        7.34109782456879        2.62807349761897        1.89181088124194   6.30382551713993E-011                       0                       0                       0                       0   6.30380955768395E-011   1.58664186741536E-016                       0     0.00593871809542179       0.996446132659912                       1                       0                       0                       4 
                 0.5201     0.00750187546886722        1.94492850067759        1.73223950507644    -0.00694251845027906        7.34160240659235        2.62807403062361        1.89174241051616   6.30382551713993E-011                       0                       0                       0                       0   6.30380955768395E-011   1.58664186741536E-016                       0     0.00593871809542179       0.996446132659912                       1                       0                       0                       4 
                 0.5201     0.00775193798449612        1.94499196852848         1.7327861459855    -0.00751323297424175        7.34207617543606        2.62807789026212        1.89168341755773   6.30382551713993E-011                       0                       0                       0                       0   6.30380955768395E-011   1.58664186741536E-016                       0     0.00593871809542179       0.996446132659912                       1                       0                       0                       4 
                 0.5201     0.00800200050012503        1.94505430526374        1.73332834277961     -0.0080818708161822        7.34254621615121        2.62808167312404        1.89162546733257   6.30382551713993E-011                       0                       0                       0                       0   6.30380955768395E-011   1.58664186741536E-016                       0     0.00593871809542179       0.996446132659912                       1                       0                       0                       4 
                 0.5201     0.00825206301575394        1.94514424431217         1.7339664167567    -0.00875533539024745        7.34310280219632        2.62808972039911        1.89154378641185   6.30382551713993E-011                       0                       0                       0                       0   6.30380955768395E-011   1.58664186741536E-016                       0     0.00593871809542179       0.996446132659912                       1                       0                       0                       4 
                 0.5201     0.00850212553138285         1.9452240062579        1.73454648168392    -0.00948612982057568        7.34361920244233        2.62810066653899        1.89147412549962   6.30382551713993E-011                       0                       0                       0                       0   6.30380955768395E-011   1.58664186741536E-016                       0     0.00593871809542179       0.996446132659912                       1                       0                       0                       4 
                 0.5201     0.00875218804701175        1.94530376820363        1.73512654661113     -0.0102169242509039        7.34413560268835        2.62811161267887        1.89140446458738   6.30382551713993E-011                       0                       0                       0                       0   6.30380955768395E-011   1.58664186741536E-016                       0     0.00593871809542179       0.996446132659912                       1                       0                       0                       4 
                 0.5201     0.00900225056264066        1.94538212480597        1.73447520826081     -0.0107130692812033        7.34382261645137        2.62822987290511        1.89141349617194   1.87331553047621E-010                       0                       0                       0                       0   1.87331067325047E-010   4.85976947855478E-016                       0     0.00373906060121953       0.996503949165344                       1                       0                       0                       4 
                 0.5201     0.00925231307826957        1.94553416366058        1.73527681279892     -0.0116783049197532        7.34440759177975        2.62819985146903        1.89124407224979   1.87331553047621E-010                       0                       0                       0                       0   1.87331067325047E-010   4.85976947855478E-016                       0     0.00373906060121953       0.996503949165344                       1                       0                       0                       4 
                 0.5201     0.00950237559389847        1.94568620251519        1.73607841733703     -0.0126435405583031        7.34499256710813        2.62816983003294        1.89107464832763   1.87331553047621E-010                       0                       0                       0                       0   1.87331067325047E-010   4.85976947855478E-016                       0     0.00373906060121953       0.996503949165344                       1                       0                       0                       4 
                 0.5201     0.00975243810952738        1.94586055745039        1.73691733755355     -0.0136484388978017         7.3456214278554        2.62814669878657        1.89088859297577   1.87331553047621E-010                       0                       0                       0                       0   1.87331067325047E-010   4.85976947855478E-016                       0     0.00373906060121953       0.996503949165344                       1                       0                       0                       4 
                 0.5201      0.0100025006251563        1.94602450829573        1.73776244500374     -0.0146348481250199        7.34624004650894        2.62811563102697        1.89070693511719   1.87331553047621E-010                       0                       0                       0                       0   1.87331067325047E-010   4.85976947855478E-016                       0     0.00373906060121953       0.996503949165344                       1                       0                       0                       4 
                 0.5201      0.0102525631407852        1.94618845914107        1.73860755245392     -0.0156212573522381        7.34685866516248        2.62808456326737        1.89052527725861   1.87331553047621E-010                       0                       0                       0                       0   1.87331067325047E-010   4.85976947855478E-016                       0     0.00373906060121953       0.996503949165344                       1                       0                       0                       4 
                 0.5201      0.0105026256564141        1.94637513340408        1.73949165586584     -0.0166481286115051        7.34752248131825        2.62806023923835        1.89032649372249   1.87331553047621E-010                       0                       0                       0                       0   1.87331067325047E-010   4.85976947855478E-016                       0     0.00373906060121953       0.996503949165344                       1                       0                       0                       4 
                 0.5201       0.010752688172043        1.94655091553271        1.74038030535403     -0.0176557098461737        7.34817506442216         2.6280280447093        1.89013260217127   1.87331553047621E-010                       0                       0                       0                       0   1.87331067325047E-010   4.85976947855478E-016                       0     0.00373906060121953       0.996503949165344                       1                       0                       0                       4 
                 0.5201      0.0110027506876719        1.94672669766135        1.74126895484223     -0.0186632910808423        7.34882764752607        2.62799585018025        1.88993871062005   1.87331553047621E-010                       0                       0                       0                       0   1.87331067325047E-010   4.85976947855478E-016                       0     0.00373906060121953       0.996503949165344                       1                       0                       0                       4 
                 0.5201      0.0112528132033008         1.9469685215627        1.74185291647548     -0.0191999927319854        7.34971411333365        2.62817735082005        1.88983478634795   8.67193761244778E-010                       0                       0                       0                       0   8.67191707332182E-010   2.04705162868378E-015                       0     0.00656467862427235       0.997611045837402                       0                       0                       0                       4 
                 0.5201      0.0115028757189297        1.94730543773284        1.74300302722876     -0.0204915319655347        7.35062296603151        2.62817799471144        1.88950821268327   8.67193761244778E-010                       0                       0                       0                       0   8.67191707332182E-010   2.04705162868378E-015                       0     0.00656467862427235       0.997611045837402                       0                       0                       0                       4 
                 0.5201      0.0117529382345586        1.94764235390298        1.74415313798204      -0.021783071199084        7.35153181872936        2.62817863860283        1.88918163901859   8.67193761244778E-010                       0                       0                       0                       0   8.67191707332182E-010   2.04705162868378E-015                       0     0.00656467862427235       0.997611045837402                       0                       0                       0                       4 
                 0.5201      0.0120030007501875        1.94798748155368        1.74525991076597     -0.0229370183003525        7.35241834769513        2.62818652517483        1.88885265523245   8.67193761244778E-010                       0                       0                       0                       0   8.67191707332182E-010   2.04705162868378E-015                       0     0.00656467862427235       0.997611045837402                       0                       0                       0                       4 
                 0.5201      0.0122530632658165        1.94835180335114        1.74645469148447     -0.0240699879605587        7.35340253568569        2.62820495656589        1.88851272082142   8.67193761244778E-010                       0                       0                       0                       0   8.67191707332182E-010   2.04705162868378E-015                       0     0.00656467862427235       0.997611045837402                       0                       0                       0                       4 
                 0.5201      0.0125031257814454        1.94871612514859        1.74764947220298     -0.0252029576207648        7.35438672367625        2.62822338795694        1.88817278641038   8.67193761244778E-010                       0                       0                       0                       0   8.67191707332182E-010   2.04705162868378E-015                       0     0.00656467862427235       0.997611045837402                       0                       0                       0                       4 
                 0.5201      0.0127531882970743        1.94908969346607        1.74880259178625     -0.0261923441741463         7.3553512654038        2.62825012120952        1.88783023099429   8.67193761244778E-010                       0                       0                       0                       0   8.67191707332182E-010   2.04705162868378E-015                       0     0.00656467862427235       0.997611045837402                       0                       0                       0                       4 
                 0.5201      0.0130032508127032        1.94948142039832        1.75004200066848     -0.0271667436647107         7.3564106263823        2.62828674248632        1.88747721798322   8.67193761244778E-010                       0                       0                       0                       0   8.67191707332182E-010   2.04705162868378E-015                       0     0.00656467862427235       0.997611045837402                       0                       0                       0                       4 
                 0.5201      0.0132533133283321        1.94987314733058         1.7512814095507      -0.028141143155275        7.35746998736079        2.62832336376312        1.88712420497215   8.67193761244778E-010                       0                       0                       0                       0   8.67191707332182E-010   2.04705162868378E-015                       0     0.00656467862427235       0.997611045837402                       0                       0                       0                       4 
                 0.5201       0.013503375843961        1.95020056824437        1.75279775131175     -0.0289082931155646         7.3587342321709        2.62833229253498        1.88681402640814   1.07274201999706E-013                       0                       0                       0                       0   1.00817689971128E-013   6.45650652286354E-015                       0      0.0747936069965363       0.995671212673187                       1                       0                       0                       4 