VARIABLES = "x"
 "y"
 "rho"
 "rhoU"
 "rhoV"
 "rhoE"
 "P"
 "T"
 "ABV"
 "error"
 "error_hMLP"
 "error_BD"
 "ABV_P"
 "ABV_I"
 "ABV_I_BD"
 "ABV_D"
 "Ducros"
 "Sk"
 "trouble_vertex"
 "trouble_face"
 "hMLP_penalty"
 "BD_penalty"
ZONE
DT=(DOUBLE,DOUBLE,DOUBLE,DOUBLE,DOUBLE,DOUBLE,DOUBLE,DOUBLE,DOUBLE,DOUBLE,DOUBLE,DOUBLE,DOUBLE,DOUBLE,DOUBLE,DOUBLE,DOUBLE,DOUBLE,DOUBLE,DOUBLE,DOUBLE,DOUBLE)
                 0.5201                       0        1.95337514287666        1.72859325317975    0.000873731059853368        7.37580018180753        2.64438389254426        1.89525149724823   6.26835171715356E-005     0.00179752288386226                       0     0.00179752288386226   1.70764669746859E-005   6.13305076058168E-007   4.49937178927939E-005   2.98921408459218E-011       0.412283360958099       0.981187462806702                       1                       1                       0                       2 
                 0.5201    0.000250062515628907        1.95338973812498        1.72869928814619    0.000418345263236913        7.37581537935161        2.64435436359344           1.89521614054   6.26835171715356E-005     0.00179752288386226                       0     0.00179752288386226   1.70764669746859E-005   6.13305076058168E-007   4.49937178927939E-005   2.98921408459218E-011       0.412283360958099       0.981187462806702                       1                       1                       0                       2 
                 0.5201    0.000500125031257815        1.95341089710265        1.72881230892375  -1.35138904545965E-005        7.37585995092586        2.64433531514779        1.89518196065301   6.26835171715356E-005     0.00179752288386226                       0     0.00179752288386226   1.70764669746859E-005   6.13305076058168E-007   4.49937178927939E-005   2.98921408459218E-011       0.412283360958099       0.981187462806702                       1                       1                       0                       2 
                 0.5201    0.000750187546886722        1.95343205608031         1.7289253297013   -0.000445373044146106        7.37590452250011        2.64431626670213        1.89514778076602   6.26835171715356E-005     0.00179752288386226                       0     0.00179752288386226   1.70764669746859E-005   6.13305076058168E-007   4.49937178927939E-005   2.98921408459218E-011       0.412283360958099       0.981187462806702                       1                       1                       0                       2 
                 0.5201     0.00100025006251563        1.95345321505797        1.72903835047886   -0.000877232197837617        7.37594909407436        2.64429721825648        1.89511360087902   6.26835171715356E-005     0.00179752288386226                       0     0.00179752288386226   1.70764669746859E-005   6.13305076058168E-007   4.49937178927939E-005   2.98921408459218E-011       0.412283360958099       0.981187462806702                       1                       1                       0                       2 
                 0.5201     0.00125031257814454        1.95347437403563        1.72915137125642    -0.00130909135152913        7.37599366564861        2.64427816981082        1.89507942099203   6.26835171715356E-005     0.00179752288386226                       0     0.00179752288386226   1.70764669746859E-005   6.13305076058168E-007   4.49937178927939E-005   2.98921408459218E-011       0.412283360958099       0.981187462806702                       1                       1                       0                       2 
                 0.5201     0.00150037509377344         1.9534955330133        1.72926439203398    -0.00174095050522064        7.37603823722286        2.64425912136516        1.89504524110503   6.26835171715356E-005     0.00179752288386226                       0     0.00179752288386226   1.70764669746859E-005   6.13305076058168E-007   4.49937178927939E-005   2.98921408459218E-011       0.412283360958099       0.981187462806702                       1                       1                       0                       2 
                 0.5201     0.00175043760940235        1.95351669199096        1.72937741281154    -0.00217280965891214         7.3760828087971        2.64424007291951        1.89501106121804   6.26835171715356E-005     0.00179752288386226                       0     0.00179752288386226   1.70764669746859E-005   6.13305076058168E-007   4.49937178927939E-005   2.98921408459218E-011       0.412283360958099       0.981187462806702                       1                       1                       0                       2 
                 0.5201     0.00200050012503126        1.95353785096862         1.7294904335891    -0.00260466881260366        7.37612738037135        2.64422102447385        1.89497688133105   6.26835171715356E-005     0.00179752288386226                       0     0.00179752288386226   1.70764669746859E-005   6.13305076058168E-007   4.49937178927939E-005   2.98921408459218E-011       0.412283360958099       0.981187462806702                       1                       1                       0                       2 
                 0.5201     0.00225056264066016        1.95355900994629        1.72960345436666    -0.00303652796629516         7.3761719519456        2.64420197602819        1.89494270144405   6.26835171715356E-005     0.00179752288386226                       0     0.00179752288386226   1.70764669746859E-005   6.13305076058168E-007   4.49937178927939E-005   2.98921408459218E-011       0.412283360958099       0.981187462806702                       1                       1                       0                       2 
                 0.5201     0.00250062515628907        1.95358016892395        1.72971647514422    -0.00346838711998667        7.37621652351985        2.64418292758254        1.89490852155706   6.26835171715356E-005     0.00179752288386226                       0     0.00179752288386226   1.70764669746859E-005   6.13305076058168E-007   4.49937178927939E-005   2.98921408459218E-011       0.412283360958099       0.981187462806702                       1                       1                       0                       2 
                 0.5201     0.00275068767191798        1.95360132790161        1.72982949592178    -0.00390024627367818         7.3762610950941        2.64416387913688        1.89487434167006   6.26835171715356E-005     0.00179752288386226                       0     0.00179752288386226   1.70764669746859E-005   6.13305076058168E-007   4.49937178927939E-005   2.98921408459218E-011       0.412283360958099       0.981187462806702                       1                       1                       0                       2 
                 0.5201     0.00300075018754689        1.95362248687927        1.72994251669934    -0.00433210542736969        7.37630566666835        2.64414483069123        1.89484016178307   6.26835171715356E-005     0.00179752288386226                       0     0.00179752288386226   1.70764669746859E-005   6.13305076058168E-007   4.49937178927939E-005   2.98921408459218E-011       0.412283360958099       0.981187462806702                       1                       1                       0                       2 
                 0.5201     0.00325081270317579        1.95364364585694        1.73005553747689     -0.0047639645810612        7.37635023824259        2.64412578224557        1.89480598189608   6.26835171715356E-005     0.00179752288386226                       0     0.00179752288386226   1.70764669746859E-005   6.13305076058168E-007   4.49937178927939E-005   2.98921408459218E-011       0.412283360958099       0.981187462806702                       1                       1                       0                       2 
                 0.5201      0.0035008752188047        1.95367812177061        1.73022395151232    -0.00521222890579362        7.37644214464442        2.64410748007465        1.89475939833136   6.26835171715356E-005     0.00179752288386226                       0     0.00179752288386226   1.70764669746859E-005   6.13305076058168E-007   4.49937178927939E-005   2.98921408459218E-011       0.412283360958099       0.981187462806702                       1                       1                       0                       2 
                 0.5201     0.00375093773443361        1.95372895339742        1.73043008610029    -0.00563345896969307        7.37660118575125        2.64410536954264        1.89470861141921   6.26835171715356E-005     0.00179752288386226                       0     0.00179752288386226   1.70764669746859E-005   6.13305076058168E-007   4.49937178927939E-005   2.98921408459218E-011       0.412283360958099       0.981187462806702                       1                       1                       0                       2 
                 0.5201     0.00400100025006252        1.95377978502423        1.73063622068826    -0.00605468903359253        7.37676022685808        2.64410325901063        1.89465782450706   6.26835171715356E-005     0.00179752288386226                       0     0.00179752288386226   1.70764669746859E-005   6.13305076058168E-007   4.49937178927939E-005   2.98921408459218E-011       0.412283360958099       0.981187462806702                       1                       1                       0                       2 
                 0.5201     0.00425106276569142        1.95383061665105        1.73084235527623    -0.00647591909749199        7.37691926796491        2.64410114847863        1.89460703759491   6.26835171715356E-005     0.00179752288386226                       0     0.00179752288386226   1.70764669746859E-005   6.13305076058168E-007   4.49937178927939E-005   2.98921408459218E-011       0.412283360958099       0.981187462806702                       1                       1                       0                       2 
                 0.5201     0.00450112528132033        1.95388144827786         1.7310484898642    -0.00689714916139145        7.37707830907174        2.64409903794662        1.89455625068276   6.26835171715356E-005     0.00179752288386226                       0     0.00179752288386226   1.70764669746859E-005   6.13305076058168E-007   4.49937178927939E-005   2.98921408459218E-011       0.412283360958099       0.981187462806702                       1                       1                       0                       2 
                 0.5201     0.00475118779694924        1.95393227990467        1.73125462445216     -0.0073183792252909        7.37723735017856        2.64409692741461        1.89450546377061   6.26835171715356E-005     0.00179752288386226                       0     0.00179752288386226   1.70764669746859E-005   6.13305076058168E-007   4.49937178927939E-005   2.98921408459218E-011       0.412283360958099       0.981187462806702                       1                       1                       0                       2 
                 0.5201     0.00500125031257814        1.95398311153148        1.73146075904013    -0.00773960928919036        7.37739639128539        2.64409481688261        1.89445467685846   6.26835171715356E-005     0.00179752288386226                       0     0.00179752288386226   1.70764669746859E-005   6.13305076058168E-007   4.49937178927939E-005   2.98921408459218E-011       0.412283360958099       0.981187462806702                       1                       1                       0                       2 
                 0.5201     0.00525131282820705        1.95403394315829         1.7316668936281    -0.00816083935308982        7.37755543239222         2.6440927063506        1.89440388994631   6.26835171715356E-005     0.00179752288386226                       0     0.00179752288386226   1.70764669746859E-005   6.13305076058168E-007   4.49937178927939E-005   2.98921408459218E-011       0.412283360958099       0.981187462806702                       1                       1                       0                       2 
                 0.5201     0.00550137534383596         1.9540847747851        1.73187302821607    -0.00858206941698928        7.37771447349905        2.64409059581859        1.89435310303416   6.26835171715356E-005     0.00179752288386226                       0     0.00179752288386226   1.70764669746859E-005   6.13305076058168E-007   4.49937178927939E-005   2.98921408459218E-011       0.412283360958099       0.981187462806702                       1                       1                       0                       2 
                 0.5201     0.00575143785946487        1.95413560641192        1.73207916280403    -0.00900329948088873        7.37787351460588        2.64408848528658        1.89430231612201   6.26835171715356E-005     0.00179752288386226                       0     0.00179752288386226   1.70764669746859E-005   6.13305076058168E-007   4.49937178927939E-005   2.98921408459218E-011       0.412283360958099       0.981187462806702                       1                       1                       0                       2 
                 0.5201     0.00600150037509377        1.95418643803873          1.732285297392    -0.00942452954478819        7.37803255571271        2.64408637475458        1.89425152920986   6.26835171715356E-005     0.00179752288386226                       0     0.00179752288386226   1.70764669746859E-005   6.13305076058168E-007   4.49937178927939E-005   2.98921408459218E-011       0.412283360958099       0.981187462806702                       1                       1                       0                       2 
                 0.5201     0.00625156289072268        1.95423726966554        1.73249143197997    -0.00984575960868765        7.37819159681954        2.64408426422257        1.89420074229771   6.26835171715356E-005     0.00179752288386226                       0     0.00179752288386226   1.70764669746859E-005   6.13305076058168E-007   4.49937178927939E-005   2.98921408459218E-011       0.412283360958099       0.981187462806702                       1                       1                       0                       2 
                 0.5201     0.00650162540635159        1.95428810129235        1.73269756656794     -0.0102669896725871        7.37835063792637        2.64408215369056        1.89414995538556   6.26835171715356E-005     0.00179752288386226                       0     0.00179752288386226   1.70764669746859E-005   6.13305076058168E-007   4.49937178927939E-005   2.98921408459218E-011       0.412283360958099       0.981187462806702                       1                       1                       0                       2 
                 0.5201     0.00675168792198049        1.95434344211894        1.73292941544895     -0.0107046046732726        7.37852367792453        2.64407666810177        1.89409236362697   6.26835171715356E-005     0.00179752288386226                       0     0.00179752288386226   1.70764669746859E-005   6.13305076058168E-007   4.49937178927939E-005   2.98921408459218E-011       0.412283360958099       0.981187462806702                       1                       1                       0                       2 
                 0.5201      0.0070017504376094        1.95442296216241        1.73322760687412     -0.0111187337010335        7.37879285974474        2.64408986740905        1.89402477372884   6.26835171715356E-005     0.00179752288386226                       0     0.00179752288386226   1.70764669746859E-005   6.13305076058168E-007   4.49937178927939E-005   2.98921408459218E-011       0.412283360958099       0.981187462806702                       1                       1                       0                       2 
                 0.5201     0.00725181295323831        1.95450346644961        1.73352684637137     -0.0115293348678679        7.37906644196583        2.64410467690689        1.89395738872506   6.26835171715356E-005     0.00179752288386226                       0     0.00179752288386226   1.70764669746859E-005   6.13305076058168E-007   4.49937178927939E-005   2.98921408459218E-011       0.412283360958099       0.981187462806702                       1                       1                       0                       2 
                 0.5201     0.00750187546886722        1.95458397073682        1.73382608586861     -0.0119399360347023        7.37934002418691        2.64411948640474        1.89389000372127   6.26835171715356E-005     0.00179752288386226                       0     0.00179752288386226   1.70764669746859E-005   6.13305076058168E-007   4.49937178927939E-005   2.98921408459218E-011       0.412283360958099       0.981187462806702                       1                       1                       0                       2 
                 0.5201     0.00775193798449612        1.95466447502403        1.73412532536586     -0.0123505372015367          7.379613606408        2.64413429590259        1.89382261871748   6.26835171715356E-005     0.00179752288386226                       0     0.00179752288386226   1.70764669746859E-005   6.13305076058168E-007   4.49937178927939E-005   2.98921408459218E-011       0.412283360958099       0.981187462806702                       1                       1                       0                       2 
                 0.5201     0.00800200050012503        1.95474497931123        1.73442456486311      -0.012761138368371        7.37988718862909        2.64414910540043        1.89375523371369   6.26835171715356E-005     0.00179752288386226                       0     0.00179752288386226   1.70764669746859E-005   6.13305076058168E-007   4.49937178927939E-005   2.98921408459218E-011       0.412283360958099       0.981187462806702                       1                       1                       0                       2 
                 0.5201     0.00825206301575394        1.95482548359844        1.73472380436036     -0.0131717395352054        7.38016077085018        2.64416391489828         1.8936878487099   6.26835171715356E-005     0.00179752288386226                       0     0.00179752288386226   1.70764669746859E-005   6.13305076058168E-007   4.49937178927939E-005   2.98921408459218E-011       0.412283360958099       0.981187462806702                       1                       1                       0                       2 
                 0.5201     0.00850212553138285        1.95490598788565         1.7350230438576     -0.0135823407020398        7.38043435307126        2.64417872439613        1.89362046370611   6.26835171715356E-005     0.00179752288386226                       0     0.00179752288386226   1.70764669746859E-005   6.13305076058168E-007   4.49937178927939E-005   2.98921408459218E-011       0.412283360958099       0.981187462806702                       1                       1                       0                       2 
                 0.5201     0.00875218804701175        1.95498649217285        1.73532228335485     -0.0139929418688742        7.38070793529235        2.64419353389397        1.89355307870233   6.26835171715356E-005     0.00179752288386226                       0     0.00179752288386226   1.70764669746859E-005   6.13305076058168E-007   4.49937178927939E-005   2.98921408459218E-011       0.412283360958099       0.981187462806702                       1                       1                       0                       2 
                 0.5201     0.00900225056264066        1.95506699646006         1.7356215228521     -0.0144035430357085        7.38098151751344        2.64420834339182        1.89348569369854   6.26835171715356E-005     0.00179752288386226                       0     0.00179752288386226   1.70764669746859E-005   6.13305076058168E-007   4.49937178927939E-005   2.98921408459218E-011       0.412283360958099       0.981187462806702                       1                       1                       0                       2 
                 0.5201     0.00925231307826957        1.95514750074727        1.73592076234935     -0.0148141442025429        7.38125509973452        2.64422315288966        1.89341830869475   6.26835171715356E-005     0.00179752288386226                       0     0.00179752288386226   1.70764669746859E-005   6.13305076058168E-007   4.49937178927939E-005   2.98921408459218E-011       0.412283360958099       0.981187462806702                       1                       1                       0                       2 
                 0.5201     0.00950237559389847        1.95522800503447        1.73622000184659     -0.0152247453693773        7.38152868195561        2.64423796238751        1.89335092369096   6.26835171715356E-005     0.00179752288386226                       0     0.00179752288386226   1.70764669746859E-005   6.13305076058168E-007   4.49937178927939E-005   2.98921408459218E-011       0.412283360958099       0.981187462806702                       1                       1                       0                       2 
                 0.5201     0.00975243810952738        1.95530850932168        1.73651924134384     -0.0156353465362117         7.3818022641767        2.64425277188536        1.89328353868717   6.26835171715356E-005     0.00179752288386226                       0     0.00179752288386226   1.70764669746859E-005   6.13305076058168E-007   4.49937178927939E-005   2.98921408459218E-011       0.412283360958099       0.981187462806702                       1                       1                       0                       2 
                 0.5201      0.0100025006251563        1.95446270145411        1.73516553564724     -0.0155120467531393        7.37802214798323        2.64308883713978        1.89326909028347   3.18643251375761E-005    0.000548448821064085    1.8945143892779E-005    0.000529503682628274   5.21026413480286E-006   2.78100628747779E-006   2.38730426644906E-005   1.35619033364565E-011       0.173202082514763       0.983066082000732                       1                       1                       0                       3 
                 0.5201      0.0102525631407852        1.95459204100208        1.73564035828677     -0.0159723351505765        7.37843985699614        2.64310523742058        1.89315561508157   3.18643251375761E-005    0.000548448821064085    1.8945143892779E-005    0.000529503682628274   5.21026413480286E-006   2.78100628747779E-006   2.38730426644906E-005   1.35619033364565E-011       0.173202082514763       0.983066082000732                       1                       1                       0                       3 
                 0.5201      0.0105026256564141        1.95474725451223        1.73614042015857     -0.0164275315952394        7.37896287537178        2.64315944946821        1.89304422193324   3.18643251375761E-005    0.000548448821064085    1.8945143892779E-005    0.000529503682628274   5.21026413480286E-006   2.78100628747779E-006   2.38730426644906E-005   1.35619033364565E-011       0.173202082514763       0.983066082000732                       1                       1                       0                       3 
                 0.5201       0.010752688172043        1.95490246802238        1.73664048203038     -0.0168827280399023        7.37948589374742        2.64321366151583        1.89293282878491   3.18643251375761E-005    0.000548448821064085    1.8945143892779E-005    0.000529503682628274   5.21026413480286E-006   2.78100628747779E-006   2.38730426644906E-005   1.35619033364565E-011       0.173202082514763       0.983066082000732                       1                       1                       0                       3 
                 0.5201      0.0110027506876719        1.95505768153253        1.73714054390219     -0.0173379244845652        7.38000891212306        2.64326787356345        1.89282143563657   3.18643251375761E-005    0.000548448821064085    1.8945143892779E-005    0.000529503682628274   5.21026413480286E-006   2.78100628747779E-006   2.38730426644906E-005   1.35619033364565E-011       0.173202082514763       0.983066082000732                       1                       1                       0                       3 
                 0.5201      0.0112528132033008        1.95521289504268          1.737640605774     -0.0177931209292281        7.38053193049871        2.64332208561107        1.89271004248824   3.18643251375761E-005    0.000548448821064085    1.8945143892779E-005    0.000529503682628274   5.21026413480286E-006   2.78100628747779E-006   2.38730426644906E-005   1.35619033364565E-011       0.173202082514763       0.983066082000732                       1                       1                       0                       3 
                 0.5201      0.0115028757189297        1.95536810855283        1.73814066764581     -0.0182483173738909        7.38105494887435         2.6433762976587        1.89259864933991   3.18643251375761E-005    0.000548448821064085    1.8945143892779E-005    0.000529503682628274   5.21026413480286E-006   2.78100628747779E-006   2.38730426644906E-005   1.35619033364565E-011       0.173202082514763       0.983066082000732                       1                       1                       0                       3 
                 0.5201      0.0117529382345586        1.95552332206298        1.73864072951761     -0.0187035138185538        7.38157796724999        2.64343050970632        1.89248725619158   3.18643251375761E-005    0.000548448821064085    1.8945143892779E-005    0.000529503682628274   5.21026413480286E-006   2.78100628747779E-006   2.38730426644906E-005   1.35619033364565E-011       0.173202082514763       0.983066082000732                       1                       1                       0                       3 
                 0.5201      0.0120030007501875        1.95567853557314        1.73914079138942     -0.0191587102632167        7.38210098562563        2.64348472175394        1.89237586304325   3.18643251375761E-005    0.000548448821064085    1.8945143892779E-005    0.000529503682628274   5.21026413480286E-006   2.78100628747779E-006   2.38730426644906E-005   1.35619033364565E-011       0.173202082514763       0.983066082000732                       1                       1                       0                       3 
                 0.5201      0.0122530632658165        1.95583374908329        1.73964085326123     -0.0196139067078796        7.38262400400128        2.64353893380156        1.89226446989492   3.18643251375761E-005    0.000548448821064085    1.8945143892779E-005    0.000529503682628274   5.21026413480286E-006   2.78100628747779E-006   2.38730426644906E-005   1.35619033364565E-011       0.173202082514763       0.983066082000732                       1                       1                       0                       3 
                 0.5201      0.0125031257814454        1.95598896259344        1.74014091513304     -0.0200691031525425        7.38314702237692        2.64359314584918        1.89215307674659   3.18643251375761E-005    0.000548448821064085    1.8945143892779E-005    0.000529503682628274   5.21026413480286E-006   2.78100628747779E-006   2.38730426644906E-005   1.35619033364565E-011       0.173202082514763       0.983066082000732                       1                       1                       0                       3 
                 0.5201      0.0127531882970743        1.95614417610359        1.74064097700484     -0.0205242995972054        7.38367004075256        2.64364735789681        1.89204168359826   3.18643251375761E-005    0.000548448821064085    1.8945143892779E-005    0.000529503682628274   5.21026413480286E-006   2.78100628747779E-006   2.38730426644906E-005   1.35619033364565E-011       0.173202082514763       0.983066082000732                       1                       1                       0                       3 
                 0.5201      0.0130032508127032        1.95629938961374        1.74114103887665     -0.0209794960418683         7.3841930591282        2.64370156994443        1.89193029044992   3.18643251375761E-005    0.000548448821064085    1.8945143892779E-005    0.000529503682628274   5.21026413480286E-006   2.78100628747779E-006   2.38730426644906E-005   1.35619033364565E-011       0.173202082514763       0.983066082000732                       1                       1                       0                       3 
                 0.5201      0.0132533133283321        1.95645460312389        1.74164110074846     -0.0214346924865312        7.38471607750385        2.64375578199205        1.89181889730159   3.18643251375761E-005    0.000548448821064085    1.8945143892779E-005    0.000529503682628274   5.21026413480286E-006   2.78100628747779E-006   2.38730426644906E-005   1.35619033364565E-011       0.173202082514763       0.983066082000732                       1                       1                       0                       3 
                 0.5201       0.013503375843961        1.95661050208196        1.74208793263387     -0.0218432575950935        7.38524441905778        2.64383042183301        1.89172157934195   3.18643251375761E-005    0.000548448821064085    1.8945143892779E-005    0.000529503682628274   5.21026413480286E-006   2.78100628747779E-006   2.38730426644906E-005   1.35619033364565E-011       0.173202082514763       0.983066082000732                       1                       1                       0                       3 