VARIABLES = "x"
 "y"
 "rho"
 "rhoU"
 "rhoV"
 "rhoE"
 "P"
 "T"
 "ABV"
 "error"
 "error_hMLP"
 "error_BD"
 "ABV_P"
 "ABV_I"
 "ABV_I_BD"
 "ABV_D"
 "Ducros"
 "Sk"
 "trouble_vertex"
 "trouble_face"
 "hMLP_penalty"
 "BD_penalty"
ZONE
DT=(DOUBLE,DOUBLE,DOUBLE,DOUBLE,DOUBLE,DOUBLE,DOUBLE,DOUBLE,DOUBLE,DOUBLE,DOUBLE,DOUBLE,DOUBLE,DOUBLE,DOUBLE,DOUBLE,DOUBLE,DOUBLE,DOUBLE,DOUBLE,DOUBLE,DOUBLE)
                 1.0501                       0        1.86329921138628        1.81844239231507   2.01241649136108E-005        7.03906338404721        2.46069239257601        1.84885460164983   1.27796352059756E-012                       0                       0                       0                       0   1.27796352059756E-012                       0                       0       0.998933434486389       0.993475556373596                       0                       0                       0                       3 
                 1.0501    0.000250062515628907         1.8632450703166        1.81838334321187    0.000581597961216626        7.03885043904645        2.46061949232379        1.84885355509462   1.27796352059756E-012                       0                       0                       0                       0   1.27796352059756E-012                       0                       0       0.998933434486389       0.993475556373596                       0                       0                       0                       3 
                 1.0501    0.000500125031257815         1.8631933801683        1.81832741411369     0.00115728840038001        7.03865090434247         2.4605511862074        1.84885352826583   1.27796352059756E-012                       0                       0                       0                       0   1.27796352059756E-012                       0                       0       0.998933434486389       0.993475556373596                       0                       0                       0                       3 
                 1.0501    0.000750187546886722        1.86314169001999         1.8182714850155      0.0017329788395434        7.03845136963849          2.460482880091        1.84885350143703   1.27796352059756E-012                       0                       0                       0                       0   1.27796352059756E-012                       0                       0       0.998933434486389       0.993475556373596                       0                       0                       0                       3 
                 1.0501     0.00100025006251563        1.86308999987168        1.81821555591732     0.00230866927870678        7.03825183493451        2.46041457397461        1.84885347460823   1.27796352059756E-012                       0                       0                       0                       0   1.27796352059756E-012                       0                       0       0.998933434486389       0.993475556373596                       0                       0                       0                       3 
                 1.0501     0.00125031257814454        1.86303830972338        1.81815962681913     0.00288435971787017        7.03805230023053        2.46034626785821        1.84885344777944   1.27796352059756E-012                       0                       0                       0                       0   1.27796352059756E-012                       0                       0       0.998933434486389       0.993475556373596                       0                       0                       0                       3 
                 1.0501     0.00150037509377344        1.86298661957507        1.81810369772095     0.00346005015703355        7.03785276552655        2.46027796174182        1.84885342095064   1.27796352059756E-012                       0                       0                       0                       0   1.27796352059756E-012                       0                       0       0.998933434486389       0.993475556373596                       0                       0                       0                       3 
                 1.0501     0.00175043760940235        1.86293492942677        1.81804776862276     0.00403574059619694        7.03765323082257        2.46020965562542        1.84885339412184   1.27796352059756E-012                       0                       0                       0                       0   1.27796352059756E-012                       0                       0       0.998933434486389       0.993475556373596                       0                       0                       0                       3 
                 1.0501     0.00200050012503126        1.86288323927846        1.81799183952458     0.00461143103536033        7.03745369611859        2.46014134950903        1.84885336729305   1.27796352059756E-012                       0                       0                       0                       0   1.27796352059756E-012                       0                       0       0.998933434486389       0.993475556373596                       0                       0                       0                       3 
                 1.0501     0.00225056264066016        1.86283154913015         1.8179359104264     0.00518712147452371        7.03725416141461        2.46007304339263        1.84885334046425   1.27796352059756E-012                       0                       0                       0                       0   1.27796352059756E-012                       0                       0       0.998933434486389       0.993475556373596                       0                       0                       0                       3 
                 1.0501     0.00250062515628907        1.86277985898185        1.81787998132821      0.0057628119136871        7.03705462671063        2.46000473727624        1.84885331363545   1.27796352059756E-012                       0                       0                       0                       0   1.27796352059756E-012                       0                       0       0.998933434486389       0.993475556373596                       0                       0                       0                       3 
                 1.0501     0.00275068767191798        1.86272816883354        1.81782405223003     0.00633850235285048        7.03685509200665        2.45993643115984        1.84885328680666   1.27796352059756E-012                       0                       0                       0                       0   1.27796352059756E-012                       0                       0       0.998933434486389       0.993475556373596                       0                       0                       0                       3 
                 1.0501     0.00300075018754689        1.86267647868524        1.81776812313184     0.00691419279201387        7.03665555730267        2.45986812504345        1.84885325997786   1.27796352059756E-012                       0                       0                       0                       0   1.27796352059756E-012                       0                       0       0.998933434486389       0.993475556373596                       0                       0                       0                       3 
                 1.0501     0.00325081270317579        1.86262478853693        1.81771219403366     0.00748988323117726        7.03645602259869        2.45979981892705        1.84885323314906   1.27796352059756E-012                       0                       0                       0                       0   1.27796352059756E-012                       0                       0       0.998933434486389       0.993475556373596                       0                       0                       0                       3 
                 1.0501      0.0035008752188047        1.86252439464485        1.81758673582166     0.00802104199448035         7.0359306864526        2.45961858262488        1.84881664087893   1.27796352059756E-012                       0                       0                       0                       0   1.27796352059756E-012                       0                       0       0.998933434486389       0.993475556373596                       0                       0                       0                       3 
                 1.0501     0.00375093773443361         1.8624036650597        1.81743168326261     0.00855148611614062        7.03526493880545        2.45938851675026         1.8487635019756   1.27796352059756E-012                       0                       0                       0                       0   1.27796352059756E-012                       0                       0       0.998933434486389       0.993475556373596                       0                       0                       0                       3 
                 1.0501     0.00400100025006252        1.86228293547456        1.81727663070355      0.0090819302378009        7.03459919115831        2.45915845087564        1.84871036307227   1.27796352059756E-012                       0                       0                       0                       0   1.27796352059756E-012                       0                       0       0.998933434486389       0.993475556373596                       0                       0                       0                       3 
                 1.0501     0.00425106276569142        1.86216220588941         1.8171215781445     0.00961237435946117        7.03393344351116        2.45892838500101        1.84865722416894   1.27796352059756E-012                       0                       0                       0                       0   1.27796352059756E-012                       0                       0       0.998933434486389       0.993475556373596                       0                       0                       0                       3 
                 1.0501     0.00450112528132033        1.86204147630427        1.81696652558545      0.0101428184811214        7.03326769586402        2.45869831912639        1.84860408526562   1.27796352059756E-012                       0                       0                       0                       0   1.27796352059756E-012                       0                       0       0.998933434486389       0.993475556373596                       0                       0                       0                       3 
                 1.0501     0.00475118779694924        1.86192074671913        1.81681147302639      0.0106732626027817        7.03260194821688        2.45846825325177        1.84855094636229   1.27796352059756E-012                       0                       0                       0                       0   1.27796352059756E-012                       0                       0       0.998933434486389       0.993475556373596                       0                       0                       0                       3 
                 1.0501     0.00500125031257814        1.86180001713398        1.81665642046734       0.011203706724442        7.03193620056973        2.45823818737715        1.84849780745896   1.27796352059756E-012                       0                       0                       0                       0   1.27796352059756E-012                       0                       0       0.998933434486389       0.993475556373596                       0                       0                       0                       3 
                 1.0501     0.00525131282820705        1.86167928754884        1.81650136790828      0.0117341508461023        7.03127045292259        2.45800812150252        1.84844466855563   1.27796352059756E-012                       0                       0                       0                       0   1.27796352059756E-012                       0                       0       0.998933434486389       0.993475556373596                       0                       0                       0                       3 
                 1.0501     0.00550137534383596        1.86155855796369        1.81634631534923      0.0122645949677625        7.03060470527544         2.4577780556279        1.84839152965231   1.27796352059756E-012                       0                       0                       0                       0   1.27796352059756E-012                       0                       0       0.998933434486389       0.993475556373596                       0                       0                       0                       3 
                 1.0501     0.00575143785946487        1.86143782837855        1.81619126279018      0.0127950390894228         7.0299389576283        2.45754798975328        1.84833839074898   1.27796352059756E-012                       0                       0                       0                       0   1.27796352059756E-012                       0                       0       0.998933434486389       0.993475556373596                       0                       0                       0                       3 
                 1.0501     0.00600150037509377        1.86131709879341        1.81603621023112      0.0133254832110831        7.02927320998116        2.45731792387866        1.84828525184565   1.27796352059756E-012                       0                       0                       0                       0   1.27796352059756E-012                       0                       0       0.998933434486389       0.993475556373596                       0                       0                       0                       3 
                 1.0501     0.00625156289072268        1.86119636920826        1.81588115767207      0.0138559273327434        7.02860746233401        2.45708785800403        1.84823211294232   1.27796352059756E-012                       0                       0                       0                       0   1.27796352059756E-012                       0                       0       0.998933434486389       0.993475556373596                       0                       0                       0                       3 
                 1.0501     0.00650162540635159        1.86107563962312        1.81572610511302      0.0143863714544036        7.02794171468687        2.45685779212941        1.84817897403899   1.27796352059756E-012                       0                       0                       0                       0   1.27796352059756E-012                       0                       0       0.998933434486389       0.993475556373596                       0                       0                       0                       3 
                 1.0501     0.00675168792198049        1.86092936298153        1.81553470227389       0.014889350495472        7.02710603442416        2.45656895160802        1.84810694393746   1.27796352059756E-012                       0                       0                       0                       0   1.27796352059756E-012                       0                       0       0.998933434486389       0.993475556373596                       0                       0                       0                       3 
                 1.0501      0.0070017504376094        1.86073925264572        1.81528006655227      0.0153724131026139        7.02597198797283        2.45617664339669        1.84800047845401   1.27796352059756E-012                       0                       0                       0                       0   1.27796352059756E-012                       0                       0       0.998933434486389       0.993475556373596                       0                       0                       0                       3 
                 1.0501     0.00725181295323831        1.86054951042603        1.81502589943977      0.0158576109805566        7.02483995568092        2.45578501445364        1.84789415591784   1.27796352059756E-012                       0                       0                       0                       0   1.27796352059756E-012                       0                       0       0.998933434486389       0.993475556373596                       0                       0                       0                       3 
                 1.0501     0.00750187546886722        1.86035976820634        1.81477173232727      0.0163428088584993        7.02370792338901        2.45539338551059        1.84778783338167   1.27796352059756E-012                       0                       0                       0                       0   1.27796352059756E-012                       0                       0       0.998933434486389       0.993475556373596                       0                       0                       0                       3 
                 1.0501     0.00775193798449612        1.86017002598664        1.81451756521477      0.0168280067364419         7.0225758910971        2.45500175656754        1.84768151084551   1.27796352059756E-012                       0                       0                       0                       0   1.27796352059756E-012                       0                       0       0.998933434486389       0.993475556373596                       0                       0                       0                       3 
                 1.0501     0.00800200050012503        1.85998028376695        1.81426339810228      0.0173132046143846        7.02144385880519        2.45461012762448        1.84757518830934   1.27796352059756E-012                       0                       0                       0                       0   1.27796352059756E-012                       0                       0       0.998933434486389       0.993475556373596                       0                       0                       0                       3 
                 1.0501     0.00825206301575394        1.85979054154726        1.81400923098978      0.0177984024923273        7.02031182651328        2.45421849868143        1.84746886577317   1.27796352059756E-012                       0                       0                       0                       0   1.27796352059756E-012                       0                       0       0.998933434486389       0.993475556373596                       0                       0                       0                       3 
                 1.0501     0.00850212553138285        1.85960079932757        1.81375506387728        0.01828360037027        7.01917979422137        2.45382686973838          1.847362543237   1.27796352059756E-012                       0                       0                       0                       0   1.27796352059756E-012                       0                       0       0.998933434486389       0.993475556373596                       0                       0                       0                       3 
                 1.0501     0.00875218804701175        1.85941105710788        1.81350089676478      0.0187687982482127        7.01804776192946        2.45343524079533        1.84725622070083   1.27796352059756E-012                       0                       0                       0                       0   1.27796352059756E-012                       0                       0       0.998933434486389       0.993475556373596                       0                       0                       0                       3 
                 1.0501     0.00900225056264066        1.85922131488819        1.81324672965229      0.0192539961261554        7.01691572963755        2.45304361185228        1.84714989816466   1.27796352059756E-012                       0                       0                       0                       0   1.27796352059756E-012                       0                       0       0.998933434486389       0.993475556373596                       0                       0                       0                       3 
                 1.0501     0.00925231307826957         1.8590315726685        1.81299256253979      0.0197391940040981        7.01578369734564        2.45265198290922        1.84704357562849   1.27796352059756E-012                       0                       0                       0                       0   1.27796352059756E-012                       0                       0       0.998933434486389       0.993475556373596                       0                       0                       0                       3 
                 1.0501     0.00950237559389847         1.8588418304488        1.81273839542729      0.0202243918820408        7.01465166505373        2.45226035396617        1.84693725309232   1.27796352059756E-012                       0                       0                       0                       0   1.27796352059756E-012                       0                       0       0.998933434486389       0.993475556373596                       0                       0                       0                       3 
                 1.0501     0.00975243810952738        1.85865208822911         1.8124842283148      0.0207095897599834        7.01351963276183        2.45186872502312        1.84683093055615   1.27796352059756E-012                       0                       0                       0                       0   1.27796352059756E-012                       0                       0       0.998933434486389       0.993475556373596                       0                       0                       0                       3 
                 1.0501      0.0100025006251563        1.85899907318013        1.81274940745132      0.0212669092890405        7.01501291428498        2.45242637917708        1.84690624584473   8.23063785095751E-013                       0                       0                       0                       0   8.23063785095751E-013                       0                       0       0.998783111572266       0.996561288833618                       0                       0                       0                       4 
                 1.0501      0.0102525631407852        1.85872122556347        1.81236716532698      0.0215867385653463        7.01352044831938        2.45192404533333        1.84680378433185   8.23063785095751E-013                       0                       0                       0                       0   8.23063785095751E-013                       0                       0       0.998783111572266       0.996561288833618                       0                       0                       0                       4 
                 1.0501      0.0105026256564141        1.85844360121401        1.81198633955398      0.0219127138492956        7.01203059178924         2.4514221859324        1.84670144142967   8.23063785095751E-013                       0                       0                       0                       0   8.23063785095751E-013                       0                       0       0.998783111572266       0.996561288833618                       0                       0                       0                       4 
                 1.0501       0.010752688172043        1.85816597686456        1.81160551378097      0.0222386891332449         7.0105407352591        2.45092032653146         1.8465990985275   8.23063785095751E-013                       0                       0                       0                       0   8.23063785095751E-013                       0                       0       0.998783111572266       0.996561288833618                       0                       0                       0                       4 
                 1.0501      0.0110027506876719        1.85788835251511        1.81122468800797      0.0225646644171943        7.00905087872896        2.45041846713053        1.84649675562532   8.23063785095751E-013                       0                       0                       0                       0   8.23063785095751E-013                       0                       0       0.998783111572266       0.996561288833618                       0                       0                       0                       4 
                 1.0501      0.0112528132033008        1.85761072816565        1.81084386223496      0.0228906397011436        7.00756102219883        2.44991660772959        1.84639441272315   8.23063785095751E-013                       0                       0                       0                       0   8.23063785095751E-013                       0                       0       0.998783111572266       0.996561288833618                       0                       0                       0                       4 
                 1.0501      0.0115028757189297         1.8573331038162        1.81046303646196       0.023216614985093        7.00607116566869        2.44941474832866        1.84629206982097   8.23063785095751E-013                       0                       0                       0                       0   8.23063785095751E-013                       0                       0       0.998783111572266       0.996561288833618                       0                       0                       0                       4 
                 1.0501      0.0117529382345586        1.85705547946675        1.81008221068896      0.0235425902690423        7.00458130913855        2.44891288892772        1.84618972691879   8.23063785095751E-013                       0                       0                       0                       0   8.23063785095751E-013                       0                       0       0.998783111572266       0.996561288833618                       0                       0                       0                       4 
                 1.0501      0.0120030007501875        1.85677785511729        1.80970138491595      0.0238685655529917        7.00309145260842        2.44841102952679        1.84608738401662   8.23063785095751E-013                       0                       0                       0                       0   8.23063785095751E-013                       0                       0       0.998783111572266       0.996561288833618                       0                       0                       0                       4 
                 1.0501      0.0122530632658165        1.85650023076784        1.80932055914295       0.024194540836941        7.00160159607828        2.44790917012585        1.84598504111444   8.23063785095751E-013                       0                       0                       0                       0   8.23063785095751E-013                       0                       0       0.998783111572266       0.996561288833618                       0                       0                       0                       4 
                 1.0501      0.0125031257814454        1.85622260641838        1.80893973336994      0.0245205161208903        7.00011173954814        2.44740731072491        1.84588269821227   8.23063785095751E-013                       0                       0                       0                       0   8.23063785095751E-013                       0                       0       0.998783111572266       0.996561288833618                       0                       0                       0                       4 
                 1.0501      0.0127531882970743        1.85594498206893        1.80855890759694      0.0248464914048397          6.998621883018        2.44690545132398        1.84578035531009   8.23063785095751E-013                       0                       0                       0                       0   8.23063785095751E-013                       0                       0       0.998783111572266       0.996561288833618                       0                       0                       0                       4 
                 1.0501      0.0130032508127032        1.85566735771948        1.80817808182394       0.025172466688789        6.99713202648787        2.44640359192304        1.84567801240791   8.23063785095751E-013                       0                       0                       0                       0   8.23063785095751E-013                       0                       0       0.998783111572266       0.996561288833618                       0                       0                       0                       4 
                 1.0501      0.0132533133283321        1.85538973337002        1.80779725605093      0.0254984419727384        6.99564216995773        2.44590173252211        1.84557566950574   8.23063785095751E-013                       0                       0                       0                       0   8.23063785095751E-013                       0                       0       0.998783111572266       0.996561288833618                       0                       0                       0                       4 
                 1.0501       0.013503375843961        1.85509549124517        1.80739018213478      0.0257919241398597        6.99403852174424        2.44536141776705        1.84546053785088   8.23063785095751E-013                       0                       0                       0                       0   8.23063785095751E-013                       0                       0       0.998783111572266       0.996561288833618                       0                       0                       0                       4 