VARIABLES = "x"
 "y"
 "rho"
 "rhoU"
 "rhoV"
 "rhoE"
 "P"
 "T"
 "ABV"
 "error"
 "error_hMLP"
 "error_BD"
 "ABV_P"
 "ABV_I"
 "ABV_I_BD"
 "ABV_D"
 "Ducros"
 "Sk"
 "trouble_vertex"
 "trouble_face"
 "hMLP_penalty"
 "BD_penalty"
ZONE
DT=(DOUBLE,DOUBLE,DOUBLE,DOUBLE,DOUBLE,DOUBLE,DOUBLE,DOUBLE,DOUBLE,DOUBLE,DOUBLE,DOUBLE,DOUBLE,DOUBLE,DOUBLE,DOUBLE,DOUBLE,DOUBLE,DOUBLE,DOUBLE,DOUBLE,DOUBLE)
                 1.0501                       0        1.87420141362533        1.83546577023865   1.01924594172774E-005        7.10238481229891        2.48144787773854         1.8536038718271   8.94388554145657E-026                       0                       0                       0                       0   8.94388554145657E-026                       0                       0       0.997406125068665       0.999319612979889                       0                       0                       0                       3 
                 1.0501    0.000250062515628907        1.87418671732118        1.83546311121116    0.000859237801617766        7.10234019266084        2.48142795272284        1.85360352003528   8.94388554145657E-026                       0                       0                       0                       0   8.94388554145657E-026                       0                       0       0.997406125068665       0.999319612979889                       0                       0                       0                       3 
                 1.0501    0.000500125031257815        1.87417249805926        1.83546042833155     0.00171291259873551         7.1022976243044         2.4814089340874        1.85360337098641   8.94388554145657E-026                       0                       0                       0                       0   8.94388554145657E-026                       0                       0       0.997406125068665       0.999319612979889                       0                       0                       0                       3 
                 1.0501    0.000750187546886722        1.87415827879734        1.83545774545194     0.00256658739585325        7.10225505594796        2.48138991545196        1.85360322193754   8.94388554145657E-026                       0                       0                       0                       0   8.94388554145657E-026                       0                       0       0.997406125068665       0.999319612979889                       0                       0                       0                       3 
                 1.0501     0.00100025006251563        1.87414405053458        1.83545508474659     0.00342024973674252        7.10221239376818        2.48137084823582         1.8536030455285   8.94388554145657E-026                       0                       0                       0                       0   8.94388554145657E-026                       0                       0       0.997406125068665       0.999319612979889                       0                       0                       0                       3 
                 1.0501     0.00125031257814454        1.87412279920846        1.83547672996099     0.00426956201101254        7.10208644574161        2.48130692985515        1.85357633721611   8.94388554145657E-026                       0                       0                       0                       0   8.94388554145657E-026                       0                       0       0.997406125068665       0.999319612979889                       0                       0                       0                       3 
                 1.0501     0.00150037509377344        1.87410285647004        1.83549980272562     0.00512425083349578        7.10196744512614        2.48124546210237        1.85355016423505   8.94388554145657E-026                       0                       0                       0                       0   8.94388554145657E-026                       0                       0       0.997406125068665       0.999319612979889                       0                       0                       0                       3 
                 1.0501     0.00175043760940235        1.87408291373162        1.83552287549024     0.00597893965597902        7.10184844451066        2.48118399434959        1.85352399125399   8.94388554145657E-026                       0                       0                       0                       0   8.94388554145657E-026                       0                       0       0.997406125068665       0.999319612979889                       0                       0                       0                       3 
                 1.0501     0.00200050012503126        1.87406294434833        1.83554593096848     0.00683357228439994        7.10172917708872        2.48112242061336        1.85349776540043   8.94388554145657E-026                       0                       0                       0                       0   8.94388554145657E-026                       0                       0       0.997406125068665       0.999319612979889                       0                       0                       0                       3 
                 1.0501     0.00225056264066016        1.87403294232322        1.83556471912947      0.0076694125192471        7.10149461945386        2.48101401591536        1.85344642512059   8.94388554145657E-026                       0                       0                       0                       0   8.94388554145657E-026                       0                       0       0.997406125068665       0.999319612979889                       0                       0                       0                       3 
                 1.0501     0.00250062515628907        1.87400509999161        1.83558639083727     0.00851137255005454        7.10127188080097        2.48090962207671        1.85339592735855   8.94388554145657E-026                       0                       0                       0                       0   8.94388554145657E-026                       0                       0       0.997406125068665       0.999319612979889                       0                       0                       0                       3 
                 1.0501     0.00275068767191798           1.87397725766        1.83560806254506     0.00935333258086197        7.10104914214808        2.48080522823805         1.8533454295965   8.94388554145657E-026                       0                       0                       0                       0   8.94388554145657E-026                       0                       0       0.997406125068665       0.999319612979889                       0                       0                       0                       3 
                 1.0501     0.00300075018754689         1.8739493623881        1.83562961594198      0.0101951613777817        7.10082588589649        2.48070066198575        1.85329485564337   8.94388554145657E-026                       0                       0                       0                       0   8.94388554145657E-026                       0                       0       0.997406125068665       0.999319612979889                       0                       0                       0                       3 
                 1.0501     0.00325081270317579        1.87390840191048        1.83561835559583      0.0110037905530205        7.10045598642092        2.48054720636454        1.85322073930996   8.94388554145657E-026                       0                       0                       0                       0   8.94388554145657E-026                       0                       0       0.997406125068665       0.999319612979889                       0                       0                       0                       3 
                 1.0501      0.0035008752188047        1.87387042426357        1.83561138010966      0.0118192789627493         7.1001028002666        2.48039929028608        1.85314779480291   8.94388554145657E-026                       0                       0                       0                       0   8.94388554145657E-026                       0                       0       0.997406125068665       0.999319612979889                       0                       0                       0                       3 
                 1.0501     0.00375093773443361        1.87383244661666        1.83560440462349      0.0126347673724781        7.09974961411229        2.48025137420761        1.85307485029585   8.94388554145657E-026                       0                       0                       0                       0   8.94388554145657E-026                       0                       0       0.997406125068665       0.999319612979889                       0                       0                       0                       3 
                 1.0501     0.00400100025006252        1.87378041945207        1.83557703978883      0.0134574113431018        7.09932778150895        2.48008135651524        1.85299935417099    3.5367131445696E-009                       0                       0                       0                       0    3.5367131445696E-009                       0                       0       0.995836615562439       0.998598039150238                       0                       0                       0                       4 
                 1.0501     0.00425106276569142        1.87370145435067         1.8354736540795      0.0142288962223002         7.0987161530005        2.47985959034472        1.85291175926428    3.5367131445696E-009                       0                       0                       0                       0    3.5367131445696E-009                       0                       0       0.995836615562439       0.998598039150238                       0                       0                       0                       4 
                 1.0501     0.00450112528132033        1.87362800304332        1.83537814353212      0.0150095068660267        7.09813545841156        2.47964811973826         1.8528263840434    3.5367131445696E-009                       0                       0                       0                       0    3.5367131445696E-009                       0                       0       0.995836615562439       0.998598039150238                       0                       0                       0                       4 
                 1.0501     0.00475118779694924        1.87355455173598        1.83528263298474      0.0157901175097533        7.09755476382262        2.47943664913179        1.85274100882253    3.5367131445696E-009                       0                       0                       0                       0    3.5367131445696E-009                       0                       0       0.995836615562439       0.998598039150238                       0                       0                       0                       4 
                 1.0501     0.00500125031257814        1.87348064877042        1.83518655316915      0.0165702297832506        7.09697207537942        2.47922451728603        1.85265558575289    3.5367131445696E-009                       0                       0                       0                       0    3.5367131445696E-009                       0                       0       0.995836615562439       0.998598039150238                       0                       0                       0                       4 
                 1.0501     0.00525131282820705        1.87332891978879        1.83499420406271      0.0172686760988941        7.09605958324308        2.47890309914985        1.85256540228851    3.5367131445696E-009                       0                       0                       0                       0    3.5367131445696E-009                       0                       0       0.995836615562439       0.998598039150238                       0                       0                       0                       4 
                 1.0501     0.00550137534383596        1.87318505783903        1.83481296066144      0.0179785519870395        7.09519080730779        2.47859623737803         1.8524783279505    3.5367131445696E-009                       0                       0                       0                       0    3.5367131445696E-009                       0                       0       0.995836615562439       0.998598039150238                       0                       0                       0                       4 
                 1.0501     0.00575143785946487        1.87304119588928        1.83463171726018      0.0186884278751848        7.09432203137251        2.47828937560622        1.85239125361249    3.5367131445696E-009                       0                       0                       0                       0    3.5367131445696E-009                       0                       0       0.995836615562439       0.998598039150238                       0                       0                       0                       4 
                 1.0501     0.00600150037509377        1.87289664178073        1.83444951735626      0.0193974689362071        7.09344992091304        2.47798142355016        1.85230404871223    3.5367131445696E-009                       0                       0                       0                       0    3.5367131445696E-009                       0                       0       0.995836615562439       0.998598039150238                       0                       0                       0                       4 
                 1.0501     0.00625156289072268        1.87265307626631        1.83413090569885      0.0199893006224428         7.0921122886962        2.47752184990232        1.85220137257728    3.5367131445696E-009                       0                       0                       0                       0    3.5367131445696E-009                       0                       0       0.995836615562439       0.998598039150238                       0                       0                       0                       4 
                 1.0501     0.00650162540635159        1.87241969557741        1.83382663737702      0.0205948539602214        7.09083118402304        2.47708114226345        1.85210270223876    3.5367131445696E-009                       0                       0                       0                       0    3.5367131445696E-009                       0                       0       0.995836615562439       0.998598039150238                       0                       0                       0                       4 
                 1.0501     0.00675168792198049        1.87218631488851        1.83352236905519      0.0212004072979999        7.08955007934987        2.47664043462458        1.85200403190025    3.5367131445696E-009                       0                       0                       0                       0    3.5367131445696E-009                       0                       0       0.995836615562439       0.998598039150238                       0                       0                       0                       4 
                 1.0501      0.0070017504376094        1.87195195128417         1.8332166650634      0.0218047104491248        7.08826398477951        2.47619810917074         1.8519051230832    3.5367131445696E-009                       0                       0                       0                       0    3.5367131445696E-009                       0                       0       0.995836615562439       0.998598039150238                       0                       0                       0                       4 
                 1.0501     0.00725181295323831        1.87159744131353        1.83273437806474      0.0222563513025472        7.08637676692162        2.47556197088762         1.8517799789674    3.5367131445696E-009                       0                       0                       0                       0    3.5367131445696E-009                       0                       0       0.995836615562439       0.998598039150238                       0                       0                       0                       4 
                 1.0501     0.00750187546886722        1.87125543382295         1.8322696437513      0.0227239939316732         7.0845587286722        2.47494896277846        1.85165975616521    3.5367131445696E-009                       0                       0                       0                       0    3.5367131445696E-009                       0                       0       0.995836615562439       0.998598039150238                       0                       0                       0                       4 
                 1.0501     0.00775193798449612        1.87091342633237        1.83180490943785      0.0231916365607992        7.08274069042278        2.47433595466931        1.85153953336302    3.5367131445696E-009                       0                       0                       0                       0    3.5367131445696E-009                       0                       0       0.995836615562439       0.998598039150238                       0                       0                       0                       4 
                 1.0501     0.00800200050012503        1.87055982117844        1.83133291598431      0.0236431616860166        7.08086335878298         2.4736998918655        1.85141343982423   1.80261716664631E-009                       0                       0                       0                       0   1.80261716664631E-009                       0                       0       0.956158757209778       0.997686207294464                       0                       0                       0                       4 
                 1.0501     0.00825206301575394        1.87009280739928        1.83065133453451       0.023936448234477        7.07833979159336         2.4728662831551        1.85125163338694   1.80261716664631E-009                       0                       0                       0                       0   1.80261716664631E-009                       0                       0       0.956158757209778       0.997686207294464                       0                       0                       0                       4 
                 1.0501     0.00850212553138285        1.86963928113696        1.82998752995916      0.0242466615654321        7.07588990317855        2.47205766258248        1.85109519156857   1.80261716664631E-009                       0                       0                       0                       0   1.80261716664631E-009                       0                       0       0.956158757209778       0.997686207294464                       0                       0                       0                       4 
                 1.0501     0.00875218804701175        1.86918575487463         1.8293237253838      0.0245568748963872        7.07344001476374        2.47124904200986         1.8509387497502   1.80261716664631E-009                       0                       0                       0                       0   1.80261716664631E-009                       0                       0       0.956158757209778       0.997686207294464                       0                       0                       0                       4 
                 1.0501     0.00900225056264066        1.86873108202444        1.82865821098903      0.0248653590545497        7.07098353715694        2.47043824418101        1.85078180802669   1.80261716664631E-009                       0                       0                       0                       0   1.80261716664631E-009                       0                       0       0.956158757209778       0.997686207294464                       0                       0                       0                       4 
                 1.0501     0.00925231307826957        1.86816326666417        1.82782148579889      0.0249989633794175        7.06787272573323        2.46941192641617        1.85057502223836   1.80261716664631E-009                       0                       0                       0                       0   1.80261716664631E-009                       0                       0       0.956158757209778       0.997686207294464                       0                       0                       0                       4 
                 1.0501     0.00950237559389847        1.86760385652138        1.82699569555186      0.0251425146554769        7.06480756594838        2.46840113673687        1.85037157055848   1.80261716664631E-009                       0                       0                       0                       0   1.80261716664631E-009                       0                       0       0.956158757209778       0.997686207294464                       0                       0                       0                       4 
                 1.0501     0.00975243810952738        1.86704444637859        1.82616990530484      0.0252860659315363        7.06174240616353        2.46739034705757        1.85016811887861   1.80261716664631E-009                       0                       0                       0                       0   1.80261716664631E-009                       0                       0       0.956158757209778       0.997686207294464                       0                       0                       0                       4 
                 1.0501      0.0100025006251563        1.86648436456165        1.82534324304411      0.0254284800635226        7.05867339938214        2.46637823668742        1.84996433628071   1.80261716664631E-009                       0                       0                       0                       0   1.80261716664631E-009                       0                       0       0.956158757209778       0.997686207294464                       0                       0                       0                       4 
                 1.0501      0.0102525631407852        1.86586295664925        1.82443673195443      0.0254630219872382        7.05525135617484        2.46524491701053        1.84972986848576   1.80261716664631E-009                       0                       0                       0                       0   1.80261716664631E-009                       0                       0       0.956158757209778       0.997686207294464                       0                       0                       0                       4 
                 1.0501      0.0105026256564141        1.86524485106943        1.82353436040842      0.0255005664609289         7.0518470804471        2.46411769036982        1.84949672627502   1.80261716664631E-009                       0                       0                       0                       0   1.80261716664631E-009                       0                       0       0.956158757209778       0.997686207294464                       0                       0                       0                       4 
                 1.0501       0.010752688172043        1.86462674548962        1.82263198886241      0.0255381109346196        7.04844280471936        2.46299046372911        1.84926358406427   1.80261716664631E-009                       0                       0                       0                       0   1.80261716664631E-009                       0                       0       0.956158757209778       0.997686207294464                       0                       0                       0                       4 
                 1.0501      0.0110027506876719        1.86400856350571        1.82172978881572       0.025575266967878        7.04503811844257        2.46186299246413        1.84903032609969   1.80261716664631E-009                       0                       0                       0                       0   1.80261716664631E-009                       0                       0       0.956158757209778       0.997686207294464                       0                       0                       0                       4 
                 1.0501      0.0112528132033008        1.86338076229359        1.82083883731646      0.0255713661051601        7.04158078603581         2.4607083920558        1.84878555013082   1.80261716664631E-009                       0                       0                       0                       0   1.80261716664631E-009                       0                       0       0.956158757209778       0.997686207294464                       0                       0                       0                       4 
                 1.0501      0.0115028757189297        1.86275120976212        1.81994522984281       0.025563559205878        7.03811343283486        2.45955052097159        1.84854006667532   1.80261716664631E-009                       0                       0                       0                       0   1.80261716664631E-009                       0                       0       0.956158757209778       0.997686207294464                       0                       0                       0                       4 
                 1.0501      0.0117529382345586        1.86212165723064        1.81905162236917       0.025555752306596        7.03464607963392        2.45839264988737        1.84829458321982   1.80261716664631E-009                       0                       0                       0                       0   1.80261716664631E-009                       0                       0       0.956158757209778       0.997686207294464                       0                       0                       0                       4 
                 1.0501      0.0120030007501875        1.86150678519253        1.81817435498151      0.0255727426020304        7.03125706504014        2.45726246921617           1.84805530629   5.30558305622542E-011                       0                       0                       0                       0   5.30558305622542E-011                       0                       0        0.77006584405899       0.998765408992767                       0                       0                       0                       4 
                 1.0501      0.0122530632658165        1.86092240100366        1.81736112974166      0.0256018461999449         7.0280536447943        2.45618712105084        1.84782641899113   5.30558305622542E-011                       0                       0                       0                       0   5.30558305622542E-011                       0                       0        0.77006584405899       0.998765408992767                       0                       0                       0                       4 
                 1.0501      0.0125031257814454        1.86032853076681        1.81653539911418      0.0256162997463694        7.02479853715537        2.45509423526511        1.84759378354648   5.30558305622542E-011                       0                       0                       0                       0   5.30558305622542E-011                       0                       0        0.77006584405899       0.998765408992767                       0                       0                       0                       4 
                 1.0501      0.0127531882970743        1.85973466052996         1.8157096684867      0.0256307532927939        7.02154342951643        2.45400134947938        1.84736114810183   5.30558305622542E-011                       0                       0                       0                       0   5.30558305622542E-011                       0                       0        0.77006584405899       0.998765408992767                       0                       0                       0                       4 
                 1.0501      0.0130032508127032        1.85914223177464        1.81488584084733      0.0256468910258414        7.01829617717684         2.4529111281095        1.84712907994991   5.30558305622542E-011                       0                       0                       0                       0   5.30558305622542E-011                       0                       0        0.77006584405899       0.998765408992767                       0                       0                       0                       4 
                 1.0501      0.0132533133283321        1.85864739586736        1.81419097547241      0.0257717592815613        7.01558083928409        2.45200128885113        1.84693537203654   5.30558305622542E-011                       0                       0                       0                       0   5.30558305622542E-011                       0                       0        0.77006584405899       0.998765408992767                       0                       0                       0                       4 
                 1.0501       0.013503375843961        1.85814507143401        1.81348630232068      0.0258845347648182        7.01282474719404        2.45107760331961        1.84673868717444   5.30558305622542E-011                       0                       0                       0                       0   5.30558305622542E-011                       0                       0        0.77006584405899       0.998765408992767                       0                       0                       0                       4 