VARIABLES = "x"
 "y"
 "rho"
 "rhoU"
 "rhoV"
 "rhoE"
 "P"
 "T"
 "ABV"
 "error"
 "error_hMLP"
 "error_BD"
 "ABV_P"
 "ABV_I"
 "ABV_I_BD"
 "ABV_D"
 "Ducros"
 "Sk"
 "trouble_vertex"
 "trouble_face"
 "hMLP_penalty"
 "BD_penalty"
ZONE
DT=(DOUBLE,DOUBLE,DOUBLE,DOUBLE,DOUBLE,DOUBLE,DOUBLE,DOUBLE,DOUBLE,DOUBLE,DOUBLE,DOUBLE,DOUBLE,DOUBLE,DOUBLE,DOUBLE,DOUBLE,DOUBLE,DOUBLE,DOUBLE,DOUBLE,DOUBLE)
                 0.5201                       0         1.9481623858765        1.72607682567055  -3.41995640367362E-005        7.34573117856717        2.63243072373684        1.89173302657925   5.55871686458431E-008                       0                       0                       0                       0   5.55871402241337E-008    2.8472439927681E-014                       0       0.716554880142212       0.997599959373474                       1                       0                       0                       3 
                 0.5201    0.000250062515628907        1.94815937486822        1.72609725160786   -0.000211801457434426        7.34573966764245        2.63242639492552        1.89173282377421   5.55871686458431E-008                       0                       0                       0                       0   5.55871402241337E-008    2.8472439927681E-014                       0       0.716554880142212       0.997599959373474                       1                       0                       0                       3 
                 0.5201    0.000500125031257815        1.94815427739697        1.72612032437248   -0.000381002642882422        7.34574109851158        2.63241798856941        1.89173169100282   5.55871686458431E-008                       0                       0                       0                       0   5.55871402241337E-008    2.8472439927681E-014                       0       0.716554880142212       0.997599959373474                       1                       0                       0                       3 
                 0.5201    0.000750187546886722        1.94814917992571        1.72614339713711   -0.000550203828330418         7.3457425293807        2.63240958221331        1.89173055823143   5.55871686458431E-008                       0                       0                       0                       0   5.55871402241337E-008    2.8472439927681E-014                       0       0.716554880142212       0.997599959373474                       1                       0                       0                       3 
                 0.5201     0.00100025006251563        1.94814410403263        1.72616656649686   -0.000719433622965669        7.34574408280433        2.63240119397811        1.89172941753215   5.55871686458431E-008                       0                       0                       0                       0   5.55871402241337E-008    2.8472439927681E-014                       0       0.716554880142212       0.997599959373474                       1                       0                       0                       3 
                 0.5201     0.00125031257814454        1.94815514209001        1.72628257976606   -0.000900050304651037         7.3458487411752        2.63240363768986        1.89172046286262   5.55871686458431E-008                       0                       0                       0                       0   5.55871402241337E-008    2.8472439927681E-014                       0       0.716554880142212       0.997599959373474                       1                       0                       0                       3 
                 0.5201     0.00150037509377344        1.94816256472359        1.72639615500278    -0.00106925060766861        7.34594055527732        2.63240125290798        1.89171157955015   5.55871686458431E-008                       0                       0                       0                       0   5.55871402241337E-008    2.8472439927681E-014                       0       0.716554880142212       0.997599959373474                       1                       0                       0                       3 
                 0.5201     0.00175043760940235        1.94816998735717        1.72650973023949    -0.00123845091068618        7.34603236937944        2.63239886812611        1.89170269623767   5.55871686458431E-008                       0                       0                       0                       0   5.55871402241337E-008    2.8472439927681E-014                       0       0.716554880142212       0.997599959373474                       1                       0                       0                       3 
                 0.5201     0.00200050012503126        1.94817746345934        1.72662337009155     -0.0014077386402136        7.34612428123908        2.63239650766439        1.89169377853124   5.55871686458431E-008                       0                       0                       0                       0   5.55871402241337E-008    2.8472439927681E-014                       0       0.716554880142212       0.997599959373474                       1                       0                       0                       3 
                 0.5201     0.00225056264066016        1.94820380068519        1.72675793474696    -0.00159885027179116        7.34623705825921        2.63239795798405        1.89166925634281   5.55871686458431E-008                       0                       0                       0                       0   5.55871402241337E-008    2.8472439927681E-014                       0       0.716554880142212       0.997599959373474                       1                       0                       0                       3 
                 0.5201     0.00250062515628907        1.94822496562678        1.72688501382583    -0.00177554504605977        7.34633137639328         2.6323939038544        1.89164576623862   5.55871686458431E-008                       0                       0                       0                       0   5.55871402241337E-008    2.8472439927681E-014                       0       0.716554880142212       0.997599959373474                       1                       0                       0                       3 
                 0.5201     0.00275068767191798        1.94824613056837        1.72701209290469    -0.00195223982032839        7.34642569452734        2.63238984972474        1.89162227613444   5.55871686458431E-008                       0                       0                       0                       0   5.55871402241337E-008    2.8472439927681E-014                       0       0.716554880142212       0.997599959373474                       1                       0                       0                       3 
                 0.5201     0.00300075018754689        1.94826739101713         1.7271390758503    -0.00212911107358846        7.34651993718563        2.63238581419573        1.89159870670923   5.55871686458431E-008                       0                       0                       0                       0   5.55871402241337E-008    2.8472439927681E-014                       0       0.716554880142212       0.997599959373474                       1                       0                       0                       3 
                 0.5201     0.00325081270317579        1.94831025401355         1.7272151081829    -0.00233819777452733        7.34655249559488        2.63237846888045        1.89155181338162   5.55871686458431E-008                       0                       0                       0                       0   5.55871402241337E-008    2.8472439927681E-014                       0       0.716554880142212       0.997599959373474                       1                       0                       0                       3 
                 0.5201      0.0035008752188047        1.94834644307427        1.72727863280265     -0.0025298824552729        7.34656096156955        2.63236487562536        1.89150691986808   5.55871686458431E-008                       0                       0                       0                       0   5.55871402241337E-008    2.8472439927681E-014                       0       0.716554880142212       0.997599959373474                       1                       0                       0                       3 
                 0.5201     0.00375093773443361        1.94838263213498        1.72734215742241    -0.00272156713601848        7.34656942754421        2.63235128237026        1.89146202635454   5.55871686458431E-008                       0                       0                       0                       0   5.55871402241337E-008    2.8472439927681E-014                       0       0.716554880142212       0.997599959373474                       1                       0                       0                       3 
                 0.5201     0.00400100025006252        1.94846509747824        1.72808269094475    -0.00320125007254084        7.34695757497453        2.63225648451204        1.89131393004426   1.24607379969888E-010                       0                       0                       0                       0   1.24607379969888E-010                       0                       0      0.0442027151584625       0.997424602508545                       0                       0                       0                       4 
                 0.5201     0.00425106276569142        1.94852186468014        1.72820588799269    -0.00337572679335074        7.34706994751715        2.63226655156029        1.89126606025867   1.24607379969888E-010                       0                       0                       0                       0   1.24607379969888E-010                       0                       0      0.0442027151584625       0.997424602508545                       0                       0                       0                       4 
                 0.5201     0.00450112528132033        1.94857254131264        1.72828169427296    -0.00351020810197159        7.34715210328138        2.63228044291955        1.89122683058316   1.24607379969888E-010                       0                       0                       0                       0   1.24607379969888E-010                       0                       0      0.0442027151584625       0.997424602508545                       0                       0                       0                       4 
                 0.5201     0.00475118779694924        1.94862321794515        1.72835750055323    -0.00364468941059243         7.3472342590456        2.63229433427882        1.89118760090764   1.24607379969888E-010                       0                       0                       0                       0   1.24607379969888E-010                       0                       0      0.0442027151584625       0.997424602508545                       0                       0                       0                       4 
                 0.5201     0.00500125031257814        1.94867389800597        1.72843507992787    -0.00378016088738013        7.34731765918065        2.63230809237647        1.89114827255306   1.24607379969888E-010                       0                       0                       0                       0   1.24607379969888E-010                       0                       0      0.0442027151584625       0.997424602508545                       0                       0                       0                       4 
                 0.5201     0.00525131282820705        1.94870819800709        1.72878523039228    -0.00405253908135803        7.34759297112199        2.63229901317699        1.89110848129443   1.24607379969888E-010                       0                       0                       0                       0   1.24607379969888E-010                       0                       0      0.0442027151584625       0.997424602508545                       0                       0                       0                       4 
                 0.5201     0.00550137534383596        1.94873136019833        1.72908300018426    -0.00428567302454607        7.34783192623787        2.63229233578852        1.89108120535493   1.24607379969888E-010                       0                       0                       0                       0   1.24607379969888E-010                       0                       0      0.0442027151584625       0.997424602508545                       0                       0                       0                       4 
                 0.5201     0.00575143785946487        1.94875452238958        1.72938076997625     -0.0045188069677341        7.34807088135375        2.63228565840005        1.89105392941543   1.24607379969888E-010                       0                       0                       0                       0   1.24607379969888E-010                       0                       0      0.0442027151584625       0.997424602508545                       0                       0                       0                       4 
                 0.5201     0.00600150037509377        1.94877795929812        1.72968044937533    -0.00475317673910435        7.34831136243833         2.6322789523952        1.89102636659668   1.24607379969888E-010                       0                       0                       0                       0   1.24607379969888E-010                       0                       0      0.0442027151584625       0.997424602508545                       0                       0                       0                       4 
                 0.5201     0.00625156289072268        1.94882205051192        1.73020822771837    -0.00513306836943176        7.34873918341145        2.63226905911755         1.8909764958898   1.24607379969888E-010                       0                       0                       0                       0   1.24607379969888E-010                       0                       0      0.0442027151584625       0.997424602508545                       0                       0                       0                       4 
                 0.5201     0.00650162540635159        1.94884998226636         1.7306786258881    -0.00547446347884062        7.34912444487822         2.6322601758061        1.89094301951815   1.24607379969888E-010                       0                       0                       0                       0   1.24607379969888E-010                       0                       0      0.0442027151584625       0.997424602508545                       0                       0                       0                       4 
                 0.5201     0.00675168792198049         1.9488779140208        1.73114902405784    -0.00581585858824949          7.349509706345        2.63225129249466        1.89090954314651   1.24607379969888E-010                       0                       0                       0                       0   1.24607379969888E-010                       0                       0      0.0442027151584625       0.997424602508545                       0                       0                       0                       4 
                 0.5201      0.0070017504376094        1.94890648150934        1.73162139598687    -0.00615875110138111        7.34989678717552        2.63224252769223        1.89087553577936   1.24607379969888E-010                       0                       0                       0                       0   1.24607379969888E-010                       0                       0      0.0442027151584625       0.997424602508545                       0                       0                       0                       4 
                 0.5201     0.00725181295323831        1.94899254458178        1.73227748890815    -0.00665576788942159        7.35046692859457        2.63224999726557         1.8907974268371   1.24607379969888E-010                       0                       0                       0                       0   1.24607379969888E-010                       0                       0      0.0442027151584625       0.997424602508545                       0                       0                       0                       4 
                 0.5201     0.00750187546886722        1.94905744045095        1.73287123990592    -0.00711503245941557        7.35098848032953        2.63225709199082        1.89073953626386   1.24607379969888E-010                       0                       0                       0                       0   1.24607379969888E-010                       0                       0      0.0442027151584625       0.997424602508545                       0                       0                       0                       4 
                 0.5201     0.00775193798449612        1.94912233632012        1.73346499090369    -0.00757429702940955        7.35151003206449        2.63226418671607        1.89068164569063   1.24607379969888E-010                       0                       0                       0                       0   1.24607379969888E-010                       0                       0      0.0442027151584625       0.997424602508545                       0                       0                       0                       4 
                 0.5201     0.00800200050012503        1.94922499030015        1.73376015954922     -0.0081119356425139        7.35179209995511        2.63228746977092        1.89059876691502   2.65310579061762E-010                       0                       0                       0                       0   2.65310579061762E-010                       0                       0      0.0050305831246078         0.9974564909935                       0                       0                       0                       4 
                 0.5201     0.00825206301575394        1.94934247093086        1.73453226871519    -0.00878509143988715        7.35248701015851        2.63230760110834        1.89049935745122   2.65310579061762E-010                       0                       0                       0                       0   2.65310579061762E-010                       0                       0      0.0050305831246078         0.9974564909935                       0                       0                       0                       4 
                 0.5201     0.00850212553138285        1.94942799524048        1.73520787797044    -0.00941386950293639        7.35309513003174        2.63232268486599        1.89042727736036   2.65310579061762E-010                       0                       0                       0                       0   2.65310579061762E-010                       0                       0      0.0050305831246078         0.9974564909935                       0                       0                       0                       4 
                 0.5201     0.00875218804701175        1.94951351955011        1.73588348722569     -0.0100426475659856        7.35370324990498        2.63233776862363         1.8903551972695   2.65310579061762E-010                       0                       0                       0                       0   2.65310579061762E-010                       0                       0      0.0050305831246078         0.9974564909935                       0                       0                       0                       4 
                 0.5201     0.00900225056264066        1.94960000932516        1.73656167865446     -0.0106736374431736        7.35431409175438        2.63235315345202        1.89028239938549   2.65310579061762E-010                       0                       0                       0                       0   2.65310579061762E-010                       0                       0      0.0050305831246078         0.9974564909935                       0                       0                       0                       4 
                 0.5201     0.00925231307826957        1.94975017824626        1.73742721470367     -0.0115062637042264        7.35511893659904        2.63238792191993        1.89016186008218   2.65310579061762E-010                       0                       0                       0                       0   2.65310579061762E-010                       0                       0      0.0050305831246078         0.9974564909935                       0                       0                       0                       4 
                 0.5201     0.00950237559389847        1.94987299449843        1.73823052838416     -0.0123120150320691        7.35585595335116        2.63241385641979        1.89006140115746   2.65310579061762E-010                       0                       0                       0                       0   2.65310579061762E-010                       0                       0      0.0050305831246078         0.9974564909935                       0                       0                       0                       4 
                 0.5201     0.00975243810952738        1.94999581075061        1.73903384206464     -0.0131177663599119        7.35659297010329        2.63243979091964        1.88996094223275   2.65310579061762E-010                       0                       0                       0                       0   2.65310579061762E-010                       0                       0      0.0050305831246078         0.9974564909935                       0                       0                       0                       4 
                 0.5201      0.0100025006251563        1.95011995902236        1.73983985377044     -0.0139248543026346        7.35733289058653        2.63246610999989         1.8898594726665   2.65310579061762E-010                       0                       0                       0                       0   2.65310579061762E-010                       0                       0      0.0050305831246078         0.9974564909935                       0                       0                       0                       4 
                 0.5201      0.0102525631407852         1.9503403586096        1.74086897393747     -0.0148494540846391        7.35828358548922        2.63251064081135        1.88967801695104   2.65310579061762E-010                       0                       0                       0                       0   2.65310579061762E-010                       0                       0      0.0050305831246078         0.9974564909935                       0                       0                       0                       4 
                 0.5201      0.0105026256564141        1.95053799738434        1.74186998601223     -0.0157645925961846        7.35918527141052        2.63254247764565        1.88950938308246   2.65310579061762E-010                       0                       0                       0                       0   2.65310579061762E-010                       0                       0      0.0050305831246078         0.9974564909935                       0                       0                       0                       4 
                 0.5201       0.010752688172043        1.95073563615908        1.74287099808699     -0.0166797311077302        7.36008695733183        2.63257431447995        1.88934074921388   2.65310579061762E-010                       0                       0                       0                       0   2.65310579061762E-010                       0                       0      0.0050305831246078         0.9974564909935                       0                       0                       0                       4 
                 0.5201      0.0110027506876719        1.95093502534182         1.7438747898936     -0.0175951070499225        7.36099170728691        2.63260663269285         1.8891707745026   2.65310579061762E-010                       0                       0                       0                       0   2.65310579061762E-010                       0                       0      0.0050305831246078         0.9974564909935                       0                       0                       0                       4 
                 0.5201      0.0112528132033008        1.95126317284229        1.74513762512271     -0.0185441826251531        7.36212443087694        2.63265607347346        1.88888886419815   2.65310579061762E-010                       0                       0                       0                       0   2.65310579061762E-010                       0                       0      0.0050305831246078         0.9974564909935                       0                       0                       0                       4 
                 0.5201      0.0115028757189297        1.95157310502041        1.74640626931204     -0.0195011214208266        7.36322691540859         2.6326888642204        1.88861243820145   2.65310579061762E-010                       0                       0                       0                       0   2.65310579061762E-010                       0                       0      0.0050305831246078         0.9974564909935                       0                       0                       0                       4 
                 0.5201      0.0117529382345586        1.95188303719853        1.74767491350137     -0.0204580602165002        7.36432939994025        2.63272165496734        1.88833601220475   2.65310579061762E-010                       0                       0                       0                       0   2.65310579061762E-010                       0                       0      0.0050305831246078         0.9974564909935                       0                       0                       0                       4 
                 0.5201      0.0120030007501875        1.95209418065518        1.74830272421582     -0.0209681147264733        7.36555591974384        2.63301967291339        1.88834529999519   8.92890372750088E-010   3.83944964710281E-008   3.83944964710281E-008                       0   3.64747732017889E-010   5.28142640732199E-010                       0                       0     0.00114871328696609       0.997126400470734                       1                       0                       0                       4 
                 0.5201      0.0122530632658165        1.95245779678087        1.74960613166645     -0.0220862900146339        7.36679879119302        2.63310215139466        1.88805309646525   8.92890372750088E-010   3.83944964710281E-008   3.83944964710281E-008                       0   3.64747732017889E-010   5.28142640732199E-010                       0                       0     0.00114871328696609       0.997126400470734                       1                       0                       0                       4 
                 0.5201      0.0125031257814454        1.95283032947588         1.7510138086228     -0.0233157357538168        7.36809527770748        2.63317005805059        1.88774161417909   8.92890372750088E-010   3.83944964710281E-008   3.83944964710281E-008                       0   3.64747732017889E-010   5.28142640732199E-010                       0                       0     0.00114871328696609       0.997126400470734                       1                       0                       0                       4 
                 0.5201      0.0127531882970743        1.95320286217089        1.75242148557915     -0.0245451814929997        7.36939176422193        2.63323796470653        1.88743013189293   8.92890372750088E-010   3.83944964710281E-008   3.83944964710281E-008                       0   3.64747732017889E-010   5.28142640732199E-010                       0                       0     0.00114871328696609       0.997126400470734                       1                       0                       0                       4 
                 0.5201      0.0130032508127032        1.95357423083081        1.75381759735869     -0.0257686830280746        7.37068149747293         2.6333071407962        1.88712069325559   8.92890372750088E-010   3.83944964710281E-008   3.83944964710281E-008                       0   3.64747732017889E-010   5.28142640732199E-010                       0                       0     0.00114871328696609       0.997126400470734                       1                       0                       0                       4 
                 0.5201      0.0132533133283321        1.95388744119744        1.75449244125448     -0.0266998291878304        7.37155838493584        2.63346056991117        1.88692830683998   8.92890372750088E-010   3.83944964710281E-008   3.83944964710281E-008                       0   3.64747732017889E-010   5.28142640732199E-010                       0                       0     0.00114871328696609       0.997126400470734                       1                       0                       0                       4 
                 0.5201       0.013503375843961        1.95421973070302        1.75526630288226     -0.0277313282732464        7.37249834660175         2.6336063396862        1.88671185810041   8.92890372750088E-010   3.83944964710281E-008   3.83944964710281E-008                       0   3.64747732017889E-010   5.28142640732199E-010                       0                       0     0.00114871328696609       0.997126400470734                       1                       0                       0                       4 