VARIABLES = "x"
 "y"
 "rho"
 "rhoU"
 "rhoV"
 "rhoE"
 "P"
 "T"
 "ABV"
 "error"
 "error_hMLP"
 "error_BD"
 "ABV_P"
 "ABV_I"
 "ABV_I_BD"
 "ABV_D"
 "Ducros"
 "Sk"
 "trouble_vertex"
 "trouble_face"
 "hMLP_penalty"
 "BD_penalty"
ZONE
DT=(DOUBLE,DOUBLE,DOUBLE,DOUBLE,DOUBLE,DOUBLE,DOUBLE,DOUBLE,DOUBLE,DOUBLE,DOUBLE,DOUBLE,DOUBLE,DOUBLE,DOUBLE,DOUBLE,DOUBLE,DOUBLE,DOUBLE,DOUBLE,DOUBLE,DOUBLE)
                 1.0501                       0        1.87559113040028        1.83769332997191   2.58309720779111E-006        7.11053295562308        2.48410104500172        1.85421086117309                       0                       0                       0                       0                       0                       0                       0                       0       0.993303656578064        0.99965888261795                       0                       0                       0                       3 
                 1.0501    0.000250062515628907        1.87559798665542        1.83773338237912    0.000966321267503224        7.11056209767497        2.48409808788089        1.85420188247079                       0                       0                       0                       0                       0                       0                       0                       0       0.993303656578064        0.99965888261795                       0                       0                       0                       3 
                 1.0501    0.000500125031257815        1.87560473293329        1.83777355485523     0.00193163788765223        7.11059099049274        2.48409498498209        1.85419286877248                       0                       0                       0                       0                       0                       0                       0                       0       0.993303656578064        0.99965888261795                       0                       0                       0                       3 
                 1.0501    0.000750187546886722        1.87563022642164        1.83791156283438      0.0028933392822486        7.11069534979507        2.48408687700726        1.85416164011056                       0                       0                       0                       0                       0                       0                       0                       0       0.993303656578064        0.99965888261795                       0                       0                       0                       3 
                 1.0501     0.00100025006251563          1.875655884703        1.83805017391806     0.00385664827787632        7.11080078314307        2.48407899983566        1.85413043190621                       0                       0                       0                       0                       0                       0                       0                       0       0.993303656578064        0.99965888261795                       0                       0                       0                       3 
                 1.0501     0.00125031257814454        1.87570397476564        1.83824550194287     0.00481295988167597        7.11093605426802        2.48406481212668        1.85407227934242                       0                       0                       0                       0                       0                       0                       0                       0       0.993303656578064        0.99965888261795                       0                       0                       0                       3 
                 1.0501     0.00150037509377344        1.87575248337955        1.83844184943312     0.00577090466210984        7.11107386176745        2.48405132379934        1.85401422140533                       0                       0                       0                       0                       0                       0                       0                       0       0.993303656578064        0.99965888261795                       0                       0                       0                       3 
                 1.0501     0.00175043760940235        1.87582716510252        1.83865386179536      0.0067184727184726        7.11119593002089         2.4840300319224        1.85392453073722                       0                       0                       0                       0                       0                       0                       0                       0       0.993303656578064        0.99965888261795                       0                       0                       0                       3 
                 1.0501     0.00200050012503126        1.87590218814088        1.83886726736328     0.00766172446288666        7.11131689708644        2.48400780870489        1.85383381178546    8.0266335800161E-009                       0                       0                       0                       0    8.0266335800161E-009                       0                       0       0.991117119789124       0.999730050563812                       0                       0                       0                       4 
                 1.0501     0.00225056264066016        1.87596057433467        1.83898428744423     0.00859967853625711         7.1113410234351        2.48398106463367        1.85375613043317    8.0266335800161E-009                       0                       0                       0                       0    8.0266335800161E-009                       0                       0       0.991117119789124       0.999730050563812                       0                       0                       0                       4 
                 1.0501     0.00250062515628907        1.87602020656194        1.83910341210495     0.00953988525861083        7.11137307490191        2.48395692168474        1.85367910553465    8.0266335800161E-009                       0                       0                       0                       0    8.0266335800161E-009                       0                       0       0.991117119789124       0.999730050563812                       0                       0                       0                       4 
                 1.0501     0.00275068767191798        1.87603975988453        1.83920438718515      0.0104585868111765        7.11136197139636        2.48391463396276        1.85362826597647    8.0266335800161E-009                       0                       0                       0                       0    8.0266335800161E-009                       0                       0       0.991117119789124       0.999730050563812                       0                       0                       0                       4 
                 1.0501     0.00300075018754689        1.87606080087648         1.8393076739892      0.0113794275986315        7.11135979743871        2.48387521388318        1.85357813536091    8.0266335800161E-009                       0                       0                       0                       0    8.0266335800161E-009                       0                       0       0.991117119789124       0.999730050563812                       0                       0                       0                       4 
                 1.0501     0.00325081270317579        1.87604341755448        1.83936421371394      0.0122772498654845        7.11128456196282        2.48381724118547        1.85355202732442    8.0266335800161E-009                       0                       0                       0                       0    8.0266335800161E-009                       0                       0       0.991117119789124       0.999730050563812                       0                       0                       0                       4 
                 1.0501      0.0035008752188047        1.87602771685537        1.83942319512089      0.0131770968051723          7.111219034298        2.48376254247431        1.85352670284263    8.0266335800161E-009                       0                       0                       0                       0    8.0266335800161E-009                       0                       0       0.991117119789124       0.999730050563812                       0                       0                       0                       4 
                 1.0501     0.00375093773443361        1.87597524563074        1.83940689760394      0.0140524127736603         7.1110500033807         2.4836886227186        1.85352337036409    8.0266335800161E-009                       0                       0                       0                       0    8.0266335800161E-009                       0                       0       0.991117119789124       0.999730050563812                       0                       0                       0                       4 
                 1.0501     0.00400100025006252         1.8759303120398        1.83939576769915       0.014941375675476        7.11091633383032        2.48362799382737        1.85352263440669   4.77595207826198E-009                       0                       0                       0                       0   4.77595207826198E-009                       0                       0       0.998714506626129        0.99959135055542                       0                       0                       0                       4 
                 1.0501     0.00425106276569142        1.87584529513393        1.83927078679356      0.0157902337597038        7.11059732085631         2.4835302413911        1.85353368116981   4.77595207826198E-009                       0                       0                       0                       0   4.77595207826198E-009                       0                       0       0.998714506626129        0.99959135055542                       0                       0                       0                       4 
                 1.0501     0.00450112528132033        1.87576152638271        1.83914727053453      0.0166398565451109         7.1102849993666        2.48343480227537        1.85354521490285   4.77595207826198E-009                       0                       0                       0                       0   4.77595207826198E-009                       0                       0       0.998714506626129        0.99959135055542                       0                       0                       0                       4 
                 1.0501     0.00475118779694924        1.87567848703889        1.83896323969335      0.0174777016162924        7.10989395389874        2.48333153766742        1.85355014374694   4.77595207826198E-009                       0                       0                       0                       0   4.77595207826198E-009                       0                       0       0.998714506626129        0.99959135055542                       0                       0                       0                       4 
                 1.0501     0.00500125031257814        1.87559642193739        1.83878042113627      0.0183162051641399        7.10950796744685        2.48323005090056        1.85355540904295   4.77595207826198E-009                       0                       0                       0                       0   4.77595207826198E-009                       0                       0       0.998714506626129        0.99959135055542                       0                       0                       0                       4 
                 1.0501     0.00525131282820705        1.87552142797299         1.8385820898278      0.0191500613986148        7.10910140371877        2.48312737585193        1.85355290798899   4.77595207826198E-009                       0                       0                       0                       0   4.77595207826198E-009                       0                       0       0.998714506626129        0.99959135055542                       0                       0                       0                       4 
                 1.0501     0.00550137534383596        1.87544709427258        1.83838478862233      0.0199844768447501        7.10869833258804        2.48302581235661        1.85355059227554   4.77595207826198E-009                       0                       0                       0                       0   4.77595207826198E-009                       0                       0       0.998714506626129        0.99959135055542                       0                       0                       0                       4 
                 1.0501     0.00575143785946487        1.87538608322654        1.83821679823268      0.0208213655944804        7.10833290954986         2.4829299977084        1.85353938543435   4.77595207826198E-009                       0                       0                       0                       0   4.77595207826198E-009                       0                       0       0.998714506626129        0.99959135055542                       0                       0                       0                       4 
                 1.0501     0.00600150037509377        1.87534691158889        1.83808212927075      0.0216897566316428        7.10809222177631        2.48287516076643        1.85353713074979   8.50036485644523E-009                       0                       0                       0                       0   8.50036485644523E-009                       0                       0       0.998550474643707       0.998401880264282                       0                       0                       0                       4 
                 1.0501     0.00625156289072268        1.87527835156968        1.83792271848184      0.0225144674907146          7.107689508108        2.48275943863146        1.85351854776873   8.50036485644523E-009                       0                       0                       0                       0   8.50036485644523E-009                       0                       0       0.998550474643707       0.998401880264282                       0                       0                       0                       4 
                 1.0501     0.00650162540635159        1.87520691274547        1.83775876336125       0.023335661169713        7.10727033989008        2.48263834143515        1.85349883656324   8.50036485644523E-009                       0                       0                       0                       0   8.50036485644523E-009                       0                       0       0.998550474643707       0.998401880264282                       0                       0                       0                       4 
                 1.0501     0.00675168792198049        1.87515533545432        1.83762627544911      0.0241850720495058        7.10695629264323        2.48255030096358        1.85348413867455   8.50036485644523E-009                       0                       0                       0                       0   8.50036485644523E-009                       0                       0       0.998550474643707       0.998401880264282                       0                       0                       0                       4 
                 1.0501      0.0070017504376094        1.87510594350715        1.83749625994019      0.0250375397313761        7.10665380572917        2.48246631940665        1.85347027387103   8.50036485644523E-009                       0                       0                       0                       0   8.50036485644523E-009                       0                       0       0.998550474643707       0.998401880264282                       0                       0                       0                       4 
                 1.0501     0.00725181295323831         1.8750228090786        1.83733357493724      0.0258490398915269        7.10616808332043        2.48231541161243        1.85343968553937   8.50036485644523E-009                       0                       0                       0                       0   8.50036485644523E-009                       0                       0       0.998550474643707       0.998401880264282                       0                       0                       0                       4 
                 1.0501     0.00750187546886722        1.87494687182761         1.8371803068879      0.0266700710469303        7.10572152263085        2.48217780617308         1.8534119085904   8.50036485644523E-009                       0                       0                       0                       0   8.50036485644523E-009                       0                       0       0.998550474643707       0.998401880264282                       0                       0                       0                       4 
                 1.0501     0.00775193798449612        1.87478374732206        1.83693036526128      0.0273810453891604        7.10480416919222        2.48187331660577        1.85334582066092   8.50036485644523E-009                       0                       0                       0                       0   8.50036485644523E-009                       0                       0       0.998550474643707       0.998401880264282                       0                       0                       0                       4 
                 1.0501     0.00800200050012503        1.87453563505284        1.83657441381936      0.0279775613105442        7.10342794731633         2.4814112428257        1.85324605872709   3.64666817631587E-007   3.68968721886631E-005   3.68968721886631E-005                       0   3.50520281244826E-007     1.414652572862E-008                       0                       0       0.988568723201752        0.99866795539856                       1                       0                       0                       4 
                 1.0501     0.00825206301575394        1.87429222972129        1.83618294328245      0.0285980829141872        7.10204618932441        2.48096142043387        1.85315068808498   3.64666817631587E-007   3.68968721886631E-005   3.68968721886631E-005                       0   3.50520281244826E-007     1.414652572862E-008                       0                       0       0.988568723201752        0.99866795539856                       1                       0                       0                       4 
                 1.0501     0.00850212553138285        1.87407802377809        1.83583167324659      0.0292587064089488        7.10082589869423        2.48056576313011        1.85306691187677   3.64666817631587E-007   3.68968721886631E-005   3.68968721886631E-005                       0   3.50520281244826E-007     1.414652572862E-008                       0                       0       0.988568723201752        0.99866795539856                       1                       0                       0                       4 
                 1.0501     0.00875218804701175        1.87356715056428         1.8350823153646      0.0295258772694577        7.09798137358401        2.47962181489081        1.85286684025069   3.64666817631587E-007   3.68968721886631E-005   3.68968721886631E-005                       0   3.50520281244826E-007     1.414652572862E-008                       0                       0       0.988568723201752        0.99866795539856                       1                       0                       0                       4 
                 1.0501     0.00900225056264066        1.87308144496884        1.83436793641701       0.029827408183254        7.09527612560314        2.47872448964839         1.8526766990509   3.64666817631587E-007   3.68968721886631E-005   3.68968721886631E-005                       0   3.50520281244826E-007     1.414652572862E-008                       0                       0       0.988568723201752        0.99866795539856                       1                       0                       0                       4 
                 1.0501     0.00925231307826957        1.87233246435102        1.83330297383434      0.0297726433529519        7.09112704225336        2.47733869872977        1.85238145169159   3.64666817631587E-007   3.68968721886631E-005   3.68968721886631E-005                       0   3.50520281244826E-007     1.414652572862E-008                       0                       0       0.988568723201752        0.99866795539856                       1                       0                       0                       4 
                 1.0501     0.00950237559389847        1.87160469683228        1.83226781504568      0.0297465602809199        7.08709541540717         2.4759921269703        1.85209455637259   3.64666817631587E-007   3.68968721886631E-005   3.68968721886631E-005                       0   3.50520281244826E-007     1.414652572862E-008                       0                       0       0.988568723201752        0.99866795539856                       1                       0                       0                       4 
                 1.0501     0.00975243810952738        1.87064715527917        1.83092932352592      0.0294012769484411        7.08179958149854        2.47421643357111        1.85171346563786   3.64666817631587E-007   3.68968721886631E-005   3.68968721886631E-005                       0   3.50520281244826E-007     1.414652572862E-008                       0                       0       0.988568723201752        0.99866795539856                       1                       0                       0                       4 
                 1.0501      0.0100025006251563        1.86982252834596         1.8297457815185      0.0292242139995148        7.07720956489995        2.47268682315377         1.8513850239432   1.56636283804579E-011                       0                       0                       0                       0   1.56636283804579E-011                       0                       0       0.999961972236633       0.998120963573456                       0                       0                       0                       4 
                 1.0501      0.0102525631407852        1.86863426942024        1.82810871805358      0.0285507875508464        7.07066809118155        2.47048745996474        1.85091421628101   1.56636283804579E-011                       0                       0                       0                       0   1.56636283804579E-011                       0                       0       0.999961972236633       0.998120963573456                       0                       0                       0                       4 
                 1.0501      0.0105026256564141        1.86744265910445        1.82646799831459      0.0278710480595946        7.06410879131874        2.46828185297478        1.85044210358618   1.56636283804579E-011                       0                       0                       0                       0   1.56636283804579E-011                       0                       0       0.999961972236633       0.998120963573456                       0                       0                       0                       4 
                 1.0501       0.010752688172043        1.86629110842954         1.8248795642252      0.0272278515164649         7.0577770655868        2.46615388476154         1.8499873093263   1.56636283804579E-011                       0                       0                       0                       0   1.56636283804579E-011                       0                       0       0.999961972236633       0.998120963573456                       0                       0                       0                       4 
                 1.0501      0.0110027506876719        1.86513057250641        1.82327960416754       0.026571068181487        7.05139633484509        2.46400928257473        1.84952899229501   1.56636283804579E-011                       0                       0                       0                       0   1.56636283804579E-011                       0                       0       0.999961972236633       0.998120963573456                       0                       0                       0                       4 
                 1.0501      0.0112528132033008        1.86408928349495        1.82185135990882      0.0260515378080233        7.04568092067854        2.46208543736148        1.84911698389862   1.56636283804579E-011                       0                       0                       0                       0   1.56636283804579E-011                       0                       0       0.999961972236633       0.998120963573456                       0                       0                       0                       4 
                 1.0501      0.0115028757189297        1.86303348241295        1.82040390360193      0.0255112843888914         7.0398861062548        2.46013471590612        1.84869920974225   1.56636283804579E-011                       0                       0                       0                       0   1.56636283804579E-011                       0                       0       0.999961972236633       0.998120963573456                       0                       0                       0                       4 
                 1.0501      0.0117529382345586        1.86217602176982        1.81924741958981      0.0252088593981276        7.03519370008774        2.45854755597193        1.84835708408459   1.56636283804579E-011                       0                       0                       0                       0   1.56636283804579E-011                       0                       0       0.999961972236633       0.998120963573456                       0                       0                       0                       4 
                 1.0501      0.0120030007501875        1.86124091166959        1.81800239922946      0.0248080347130528         7.0300906686361        2.45681645489282        1.84798386964509     9.877962163507E-012                       0                       0                       0                       0     9.877962163507E-012                       0                       0        0.99779224395752       0.998201251029968                       0                       0                       0                       4 
                 1.0501      0.0122530632658165        1.86064918091724         1.8171841411592       0.024833247077208          7.026838099488        2.45572202427685        1.84774798034426     9.877962163507E-012                       0                       0                       0                       0     9.877962163507E-012                       0                       0        0.99779224395752       0.998201251029968                       0                       0                       0                       4 
                 1.0501      0.0125031257814454        1.86004318617154        1.81634520089822      0.0248372378024721        7.02350603422506         2.4546013152996        1.84750646153488     9.877962163507E-012                       0                       0                       0                       0     9.877962163507E-012                       0                       0        0.99779224395752       0.998201251029968                       0                       0                       0                       4 
                 1.0501      0.0127531882970743        1.85959456168074        1.81572187280148      0.0250321311478063        7.02104646040392        2.45377429655265        1.84732953036542     9.877962163507E-012                       0                       0                       0                       0     9.877962163507E-012                       0                       0        0.99779224395752       0.998201251029968                       0                       0                       0                       4 
                 1.0501      0.0130032508127032         1.8591375782811        1.81508639513689      0.0252130195899272           7.01854028117        2.45293180179275        1.84714925991412     9.877962163507E-012                       0                       0                       0                       0     9.877962163507E-012                       0                       0        0.99779224395752       0.998201251029968                       0                       0                       0                       4 
                 1.0501      0.0132533133283321        1.85877122915213        1.81457629729797      0.0254969056469465        7.01653329222743        2.45225683072018        1.84700489580218     9.877962163507E-012                       0                       0                       0                       0     9.877962163507E-012                       0                       0        0.99779224395752       0.998201251029968                       0                       0                       0                       4 
                 1.0501       0.013503375843961        1.85840230880956        1.81406249731797      0.0257738795141172        7.01451177915442        2.45157709822794        1.84685948770249     9.877962163507E-012                       0                       0                       0                       0     9.877962163507E-012                       0                       0        0.99779224395752       0.998201251029968                       0                       0                       0                       4 