VARIABLES = "x"
 "y"
 "rho"
 "rhoU"
 "rhoV"
 "rhoE"
 "P"
 "T"
 "ABV"
 "error"
 "error_hMLP"
 "error_BD"
 "ABV_P"
 "ABV_I"
 "ABV_I_BD"
 "ABV_D"
 "Ducros"
 "Sk"
 "trouble_vertex"
 "trouble_face"
 "hMLP_penalty"
 "BD_penalty"
ZONE
DT=(DOUBLE,DOUBLE,DOUBLE,DOUBLE,DOUBLE,DOUBLE,DOUBLE,DOUBLE,DOUBLE,DOUBLE,DOUBLE,DOUBLE,DOUBLE,DOUBLE,DOUBLE,DOUBLE,DOUBLE,DOUBLE,DOUBLE,DOUBLE,DOUBLE,DOUBLE)
                 0.5201                       0        1.94395164609844        1.71738984425509   3.13984489361337E-006        7.35073365319225        2.63684696738516        1.89901106874955   3.96858949172694E-015                       0                       0                       0                       0   3.96858652711163E-015   3.06615375506485E-021                       0       0.514687538146973        0.99949038028717                       0                       0                       0                       3 
                 0.5201    0.000250062515628907        1.94397877313127        1.71744184421404   -0.000213400868029254        7.35082580145704        2.63686964687309        1.89900088574864   3.96858949172694E-015                       0                       0                       0                       0   3.96858652711163E-015   3.06615375506485E-021                       0       0.514687538146973        0.99949038028717                       0                       0                       0                       3 
                 0.5201    0.000500125031257815        1.94400723502153        1.71749195871796   -0.000424285821690815        7.35092082366648        2.63689434301576        1.89899085669999   3.96858949172694E-015                       0                       0                       0                       0   3.96858652711163E-015   3.06615375506485E-021                       0       0.514687538146973        0.99949038028717                       0                       0                       0                       3 
                 0.5201    0.000750187546886722        1.94408524379081        1.71772616520354   -0.000652374768651853        7.35124344769243        2.63695270438325         1.8989567321203   3.96858949172694E-015                       0                       0                       0                       0   3.96858652711163E-015   3.06615375506485E-021                       0       0.514687538146973        0.99949038028717                       0                       0                       0                       3 
                 0.5201     0.00100025006251563        1.94416517487482        1.71795830247576   -0.000874323745748443        7.35157407240267        2.63701531432553        1.89892378892866   3.96858949172694E-015                       0                       0                       0                       0   3.96858652711163E-015   3.06615375506485E-021                       0       0.514687538146973        0.99949038028717                       0                       0                       0                       3 
                 0.5201     0.00125031257814454        1.94428961914559        1.71828484460609    -0.00110592233334833        7.35201834392227        2.63709700989163        1.89886107506127   3.96858949172694E-015                       0                       0                       0                       0   3.96858652711163E-015   3.06615375506485E-021                       0       0.514687538146973        0.99949038028717                       0                       0                       0                       3 
                 0.5201     0.00150037509377344        1.94441654195973        1.71860906852733    -0.00133089120036087        7.35247570400259        2.63718511471471        1.89880056029223   3.96858949172694E-015                       0                       0                       0                       0   3.96858652711163E-015   3.06615375506485E-021                       0       0.514687538146973        0.99949038028717                       0                       0                       0                       3 
                 0.5201     0.00175043760940235        1.94458283235037        1.71893800362991    -0.00155796077149533        7.35293307997198        2.63727762983127        1.89870476456477   3.96858949172694E-015                       0                       0                       0                       0   3.96858652711163E-015   3.06615375506485E-021                       0       0.514687538146973        0.99949038028717                       0                       0                       0                       3 
                 0.5201     0.00200050012503126        1.94468848314209        1.71897683167508    -0.00177414751315662        7.35315105750274        2.63736753284175        1.89866632937831   6.12525030696531E-011                       0                       0                       0                       0   6.12525030696531E-011   2.08255219815673E-021                       0      0.0309818796813488       0.999063909053802                       0                       0                       0                       4 
                 0.5201     0.00225056264066016         1.9448848444534        1.71934845380172    -0.00199516531011644        7.35361313595324        2.63745155873584         1.8985351213202   6.12525030696531E-011                       0                       0                       0                       0   6.12525030696531E-011   2.08255219815673E-021                       0      0.0309818796813488       0.999063909053802                       0                       0                       0                       4 
                 0.5201     0.00250062515628907        1.94508299960769        1.71971333285407    -0.00220868085089822        7.35408493002182        2.63754210594748        1.89840690125495   6.12525030696531E-011                       0                       0                       0                       0   6.12525030696531E-011   2.08255219815673E-021                       0      0.0309818796813488       0.999063909053802                       0                       0                       0                       4 
                 0.5201     0.00275068767191798        1.94520145064844        1.72003858563092    -0.00243766401853319        7.35449827370763        2.63761082100658        1.89834077227376   6.12525030696531E-011                       0                       0                       0                       0   6.12525030696531E-011   2.08255219815673E-021                       0      0.0309818796813488       0.999063909053802                       0                       0                       0                       4 
                 0.5201     0.00300075018754689         1.9453195771735        1.72035142694595    -0.00265806186713328         7.3549135173705        2.63768466481771        1.89827862355048   6.12525030696531E-011                       0                       0                       0                       0   6.12525030696531E-011   2.08255219815673E-021                       0      0.0309818796813488       0.999063909053802                       0                       0                       0                       4 
                 0.5201     0.00325081270317579        1.94538149235794         1.7206229393894    -0.00290783429901688        7.35525826411203        2.63773606130813        1.89825518292076   6.12525030696531E-011                       0                       0                       0                       0   6.12525030696531E-011   2.08255219815673E-021                       0      0.0309818796813488       0.999063909053802                       0                       0                       0                       4 
                 0.5201      0.0035008752188047        1.94544102051236        1.72087641642726    -0.00314795697544757          7.355596925423        2.63779105754295        1.89823666377726   6.12525030696531E-011                       0                       0                       0                       0   6.12525030696531E-011   2.08255219815673E-021                       0      0.0309818796813488       0.999063909053802                       0                       0                       0                       4 
                 0.5201     0.00375093773443361        1.94546783387597        1.72108672185511    -0.00343134216805956        7.35585331089895        2.63782324851875         1.8982336286993   6.12525030696531E-011                       0                       0                       0                       0   6.12525030696531E-011   2.08255219815673E-021                       0      0.0309818796813488       0.999063909053802                       0                       0                       0                       4 
                 0.5201     0.00400100025006252        1.94549635327596        1.72136351769224    -0.00369278778135056        7.35616307763169         2.6378534459427        1.89822757485403   1.28532753884691E-010                       0                       0                       0                       0   1.28532753884691E-010                       0                       0    0.000607770285569131       0.999192237854004                       0                       0                       0                       4 
                 0.5201     0.00425106276569142        1.94549831371579        1.72147914628101    -0.00400442590936637        7.35627678165908        2.63785799220451          1.898228969489   1.28532753884691E-010                       0                       0                       0                       0   1.28532753884691E-010                       0                       0    0.000607770285569131       0.999192237854004                       0                       0                       0                       4 
                 0.5201     0.00450112528132033        1.94549508364436        1.72157902168642    -0.00430306487854434        7.35637640961102        2.63786165641932        1.89823480350256   1.28532753884691E-010                       0                       0                       0                       0   1.28532753884691E-010                       0                       0    0.000607770285569131       0.999192237854004                       0                       0                       0                       4 
                 0.5201     0.00475118779694924        1.94551929924213        1.72172519159162    -0.00464731038552829         7.3564910223123        2.63785927976349        1.89820938711125   1.28532753884691E-010                       0                       0                       0                       0   1.28532753884691E-010                       0                       0    0.000607770285569131       0.999192237854004                       0                       0                       0                       4 
                 0.5201     0.00500125031257814        1.94553734877969        1.72184865208518    -0.00497403012007699        7.35658942678253        2.63785759312516        1.89819043672186   1.28532753884691E-010                       0                       0                       0                       0   1.28532753884691E-010                       0                       0    0.000607770285569131       0.999192237854004                       0                       0                       0                       4 
                 0.5201     0.00525131282820705        1.94558846725995        1.72204169207902    -0.00536303487770006        7.35673656576577        2.63785564021357        1.89813920451626   1.28532753884691E-010                       0                       0                       0                       0   1.28532753884691E-010                       0                       0    0.000607770285569131       0.999192237854004                       0                       0                       0                       4 
                 0.5201     0.00550137534383596        1.94563245334046         1.7222050481757    -0.00573002300328767        7.35686550054657         2.6378557607643        1.89809647798813   1.28532753884691E-010                       0                       0                       0                       0   1.28532753884691E-010                       0                       0    0.000607770285569131       0.999192237854004                       0                       0                       0                       4 
                 0.5201     0.00575143785946487        1.94571493096238        1.72246122862658    -0.00617593798484368        7.35707620598314         2.6378616782147        1.89802023384229   1.28532753884691E-010                       0                       0                       0                       0   1.28532753884691E-010                       0                       0    0.000607770285569131       0.999192237854004                       0                       0                       0                       4 
                 0.5201     0.00600150037509377        1.94579352243529        1.72277953722768    -0.00658512411417992        7.35732097764403        2.63785860980557        1.89794139986301   1.54109128236435E-010                       0                       0                       0                       0   1.54109128236435E-010                       0                       0    0.000661070342175663        0.99873161315918                       0                       0                       0                       4 
                 0.5201     0.00625156289072268        1.94590643489355        1.72313944625041    -0.00707733617499356        7.35765424777833        2.63788147791155        1.89784767008779   1.54109128236435E-010                       0                       0                       0                       0   1.54109128236435E-010                       0                       0    0.000661070342175663        0.99873161315918                       0                       0                       0                       4 
                 0.5201     0.00650162540635159        1.94601381853796         1.7234558944592     -0.0075428659567864        7.35797762990655        2.63791500645829        1.89776699555506   1.54109128236435E-010                       0                       0                       0                       0   1.54109128236435E-010                       0                       0    0.000661070342175663        0.99873161315918                       0                       0                       0                       4 
                 0.5201     0.00675168792198049        1.94616707424678        1.72396712714118     -0.0081084301126544        7.35846795705622        2.63795303736502        1.89764497329188   1.54109128236435E-010                       0                       0                       0                       0   1.54109128236435E-010                       0                       0    0.000661070342175663        0.99873161315918                       0                       0                       0                       4 
                 0.5201      0.0070017504376094        1.94631414767309        1.72443038797796    -0.00864066303992914        7.35894887675051        2.63800345369263        1.89753793243062   1.54109128236435E-010                       0                       0                       0                       0   1.54109128236435E-010                       0                       0    0.000661070342175663        0.99873161315918                       0                       0                       0                       4 
                 0.5201     0.00725181295323831        1.94650800692485         1.7250658169555    -0.00928986290036203        7.35957074575216        2.63805608132253        1.89738684762523   1.54109128236435E-010                       0                       0                       0                       0   1.54109128236435E-010                       0                       0    0.000661070342175663        0.99873161315918                       0                       0                       0                       4 
                 0.5201     0.00750187546886722        1.94669501097737        1.72564868957174    -0.00989912831788381        7.36018365613665        2.63812290056245        1.89725265921903   1.54109128236435E-010                       0                       0                       0                       0   1.54109128236435E-010                       0                       0    0.000661070342175663        0.99873161315918                       0                       0                       0                       4 
                 0.5201     0.00775193798449612        1.94692967358556        1.72638122315585     -0.0106422450199382        7.36091136221938        2.63818929488292        1.89707174243201   1.54109128236435E-010                       0                       0                       0                       0   1.54109128236435E-010                       0                       0    0.000661070342175663        0.99873161315918                       0                       0                       0                       4 
                 0.5201     0.00800200050012503        1.94715795069892        1.72711861459746     -0.0114992530799646         7.3615325677251        2.63821043594064        1.89686434626663   1.61749291738289E-009   3.93812342736055E-008   3.93812342736055E-008                       0   3.74121733592858E-010   1.24337040663391E-009                       0   7.85019547603445E-016     0.00136513414327055       0.999214768409729                       1                       0                       0                       4 
                 0.5201     0.00825206301575394        1.94741570421025        1.72799529037296     -0.0122487470565977        7.36238162056011        2.63827747049209        1.89666154131135   1.61749291738289E-009   3.93812342736055E-008   3.93812342736055E-008                       0   3.74121733592858E-010   1.24337040663391E-009                       0   7.85019547603445E-016     0.00136513414327055       0.999214768409729                       1                       0                       0                       4 
                 0.5201     0.00850212553138285        1.94765250775022        1.72875220721348     -0.0129048052106712        7.36315969632764        2.63835575315928        1.89648720841912   1.61749291738289E-009   3.93812342736055E-008   3.93812342736055E-008                       0   3.74121733592858E-010   1.24337040663391E-009                       0   7.85019547603445E-016     0.00136513414327055       0.999214768409729                       1                       0                       0                       4 
                 0.5201     0.00875218804701175         1.9479489642171        1.72977870560081     -0.0138655415069445        7.36409467497298        2.63840901960945        1.89623691941861   1.61749291738289E-009   3.93812342736055E-008   3.93812342736055E-008                       0   3.74121733592858E-010   1.24337040663391E-009                       0   7.85019547603445E-016     0.00136513414327055       0.999214768409729                       1                       0                       0                       4 
                 0.5201     0.00900225056264066        1.94822256063292        1.73070140414251     -0.0147405683684284        7.36496025331497        2.63846831706055        1.89601319513304   1.61749291738289E-009   3.93812342736055E-008   3.93812342736055E-008                       0   3.74121733592858E-010   1.24337040663391E-009                       0   7.85019547603445E-016     0.00136513414327055       0.999214768409729                       1                       0                       0                       4 
                 0.5201     0.00925231307826957        1.94856745466628        1.73189104340514     -0.0158846151307457        7.36601916776885        2.63851948680157        1.89571445153794   1.61749291738289E-009   3.93812342736055E-008   3.93812342736055E-008                       0   3.74121733592858E-010   1.24337040663391E-009                       0   7.85019547603445E-016     0.00136513414327055       0.999214768409729                       1                       0                       0                       4 
                 0.5201     0.00950237559389847        1.94888757747085        1.73299272712212     -0.0169506103928118        7.36701019804315        2.63857150987798        1.89544032570459   1.61749291738289E-009   3.93812342736055E-008   3.93812342736055E-008                       0   3.74121733592858E-010   1.24337040663391E-009                       0   7.85019547603445E-016     0.00136513414327055       0.999214768409729                       1                       0                       0                       4 
                 0.5201     0.00975243810952738        1.94929087384824        1.73435893116748     -0.0182500429794154        7.36823111636975        2.63863232725108        1.89509200230318   1.61749291738289E-009   3.93812342736055E-008   3.93812342736055E-008                       0   3.74121733592858E-010   1.24337040663391E-009                       0   7.85019547603445E-016     0.00136513414327055       0.999214768409729                       1                       0                       0                       4 
                 0.5201      0.0100025006251563        1.94970094630903        1.73534123055357     -0.0195513308533308        7.36906086126017        2.63867495668428        1.89472386571225   6.63359722707924E-009                       0                       0                       0                       0   6.63359722707924E-009                       0                       0    0.000739082228392363       0.997522950172424                       0                       0                       0                       4 
                 0.5201      0.0102525631407852        1.95018038264114        1.73710064288551     -0.0210245292797065        7.37072015138438        2.63878108722936        1.89433445252186   6.63359722707924E-009                       0                       0                       0                       0   6.63359722707924E-009                       0                       0    0.000739082228392363       0.997522950172424                       0                       0                       0                       4 
                 0.5201      0.0105026256564141        1.95061707964667        1.73873743376024     -0.0223865906180876        7.37227148738253        2.63888220889811        1.89398282951223   6.63359722707924E-009                       0                       0                       0                       0   6.63359722707924E-009                       0                       0    0.000739082228392363       0.997522950172424                       0                       0                       0                       4 
                 0.5201       0.010752688172043        1.95115104556389        1.74054410066548     -0.0240468319110144        7.37396698828466        2.63899211430588        1.89354363384858   6.63359722707924E-009                       0                       0                       0                       0   6.63359722707924E-009                       0                       0    0.000739082228392363       0.997522950172424                       0                       0                       0                       4 
                 0.5201      0.0110027506876719        1.95164571840095        1.74227176987295     -0.0256397645011442        7.37558224740496        2.63909301823403        1.89313593233054   6.63359722707924E-009                       0                       0                       0                       0   6.63359722707924E-009                       0                       0    0.000739082228392363       0.997522950172424                       0                       0                       0                       4 
                 0.5201      0.0112528132033008        1.95222724735419        1.74415169309238     -0.0273871802552961        7.37728884632274        2.63918651060926        1.89263925713512   6.63359722707924E-009                       0                       0                       0                       0   6.63359722707924E-009                       0                       0    0.000739082228392363       0.997522950172424                       0                       0                       0                       4 
                 0.5201      0.0115028757189297        1.95277290531426        1.74599608662521     -0.0291107789180924        7.37894264620672        2.63926692025743        1.89216774125907   6.63359722707924E-009                       0                       0                       0                       0   6.63359722707924E-009                       0                       0    0.000739082228392363       0.997522950172424                       0                       0                       0                       4 
                 0.5201      0.0117529382345586        1.95339509037394         1.7479751818585     -0.0308455021235055        7.38063480626488        2.63932371182728          1.891606101083   6.63359722707924E-009                       0                       0                       0                       0   6.63359722707924E-009                       0                       0    0.000739082228392363       0.997522950172424                       0                       0                       0                       4 
                 0.5201      0.0120030007501875        1.95403870966497        1.74975330525697     -0.0321358501097519         7.3826580157426        2.63959173351834        1.89117475951218   6.68257058578092E-008   3.36875177708862E-006   3.36875177708862E-006                       0   3.20031432465839E-008   3.48221540491522E-008                       0   4.07226064935012E-013      0.0213825833052397       0.997237861156464                       1                       0                       0                       4 
                 0.5201      0.0122530632658165        1.95467500828814        1.75201392774824     -0.0340970871687405         7.3845978695272        2.63964535595535        1.89059788059311   6.68257058578092E-008   3.36875177708862E-006   3.36875177708862E-006                       0   3.20031432465839E-008   3.48221540491522E-008                       0   4.07226064935012E-013      0.0213825833052397       0.997237861156464                       1                       0                       0                       4 
                 0.5201      0.0125031257814454        1.95531387338216        1.75445255469611     -0.0362599387558858        7.38666954770991        2.63968790786269        1.89001030391708   6.68257058578092E-008   3.36875177708862E-006   3.36875177708862E-006                       0   3.20031432465839E-008   3.48221540491522E-008                       0   4.07226064935012E-013      0.0213825833052397       0.997237861156464                       1                       0                       0                       4 
                 0.5201      0.0127531882970743        1.95599708117614        1.75626635388227     -0.0378002421409361        7.38831946255537        2.63979451948424         1.8894268299326   6.68257058578092E-008   3.36875177708862E-006   3.36875177708862E-006                       0   3.20031432465839E-008   3.48221540491522E-008                       0   4.07226064935012E-013      0.0213825833052397       0.997237861156464                       1                       0                       0                       4 
                 0.5201      0.0130032508127032        1.95669978525566        1.75826713092883     -0.0395321058045951         7.3901315395273        2.63990107460031        1.88882415525995   6.68257058578092E-008   3.36875177708862E-006   3.36875177708862E-006                       0   3.20031432465839E-008   3.48221540491522E-008                       0   4.07226064935012E-013      0.0213825833052397       0.997237861156464                       1                       0                       0                       4 
                 0.5201      0.0132533133283321        1.95742338947138        1.75959682562553     -0.0406271866541192        7.39142724930023        2.64004909274612         1.8882320903613   6.68257058578092E-008   3.36875177708862E-006   3.36875177708862E-006                       0   3.20031432465839E-008   3.48221540491522E-008                       0   4.07226064935012E-013      0.0213825833052397       0.997237861156464                       1                       0                       0                       4 
                 0.5201       0.013503375843961        1.95818332404242        1.76112242522794     -0.0419037998011797        7.39291494578651        2.64020802582618        1.88761253666546   6.68257058578092E-008   3.36875177708862E-006   3.36875177708862E-006                       0   3.20031432465839E-008   3.48221540491522E-008                       0   4.07226064935012E-013      0.0213825833052397       0.997237861156464                       1                       0                       0                       4 