VARIABLES = "x"
 "y"
 "rho"
 "rhoU"
 "rhoV"
 "rhoE"
 "P"
 "T"
 "ABV"
 "error"
 "error_hMLP"
 "error_BD"
 "ABV_P"
 "ABV_I"
 "ABV_I_BD"
 "ABV_D"
 "Ducros"
 "Sk"
 "trouble_vertex"
 "trouble_face"
 "hMLP_penalty"
 "BD_penalty"
ZONE
DT=(DOUBLE,DOUBLE,DOUBLE,DOUBLE,DOUBLE,DOUBLE,DOUBLE,DOUBLE,DOUBLE,DOUBLE,DOUBLE,DOUBLE,DOUBLE,DOUBLE,DOUBLE,DOUBLE,DOUBLE,DOUBLE,DOUBLE,DOUBLE,DOUBLE,DOUBLE)
                 1.0501                       0        1.87563214526951        1.83761497093357   6.87725193812672E-007         7.1106320098854        2.48417903595871        1.85422857079206                       0                       0                       0                       0                       0                       0                       0                       0        0.99408096075058       0.999552547931671                       0                       0                       0                       3 
                 1.0501    0.000250062515628907        1.87563147991353        1.83764212166675    0.000932740621688563        7.11062891920076         2.4841669093426        1.85422011435716                       0                       0                       0                       0                       0                       0                       0                       0        0.99408096075058       0.999552547931671                       0                       0                       0                       3 
                 1.0501    0.000500125031257815        1.87563083602241        1.83766937972419      0.0018668829483886        7.11062591437553        2.48415478272649         1.8542116364574                       0                       0                       0                       0                       0                       0                       0                       0        0.99408096075058       0.999552547931671                       0                       0                       0                       3 
                 1.0501    0.000750187546886722        1.87563554299591         1.8377594076148     0.00279691562047135        7.11063242885309        2.48412249811869        1.85418289626738                       0                       0                       0                       0                       0                       0                       0                       0        0.99408096075058       0.999552547931671                       0                       0                       0                       3 
                 1.0501     0.00100025006251563        1.87564251848305         1.8378683325294     0.00372855334102997        7.11064573593625        2.48408579632481        1.85414871638039                       0                       0                       0                       0                       0                       0                       0                       0        0.99408096075058       0.999552547931671                       0                       0                       0                       3 
                 1.0501     0.00125031257814454        1.87565530749578        1.83800044007894      0.0046561069566913        7.11064333655552        2.48403459892802        1.85409795626201                       0                       0                       0                       0                       0                       0                       0                       0        0.99408096075058       0.999552547931671                       0                       0                       0                       3 
                 1.0501     0.00150037509377344        1.87567473154459        1.83815363250809     0.00558441560085958        7.11063968783917        2.48397579020566        1.85403480127458                       0                       0                       0                       0                       0                       0                       0                       0        0.99408096075058       0.999552547931671                       0                       0                       0                       3 
                 1.0501     0.00175043760940235        1.87569854156297        1.83830736419579     0.00650940548779508        7.11061123322934        2.48390759838446        1.85396030388223                       0                       0                       0                       0                       0                       0                       0                       0        0.99408096075058       0.999552547931671                       0                       0                       0                       3 
                 1.0501     0.00200050012503126        1.87573507150655        1.83846713298719     0.00743318692998646        7.11055520962077          2.483828205266        1.85386489633016                       0                       0                       0                       0                       0                       0                       0                       0        0.99408096075058       0.999552547931671                       0                       0                       0                       3 
                 1.0501     0.00225056264066016        1.87576891088669        1.83861585630675     0.00835496467817331        7.11047951360719        2.48374472359702        1.85376916547114   1.47393537375251E-008                       0                       0                       0                       0   1.47393537375251E-008                       0                       0       0.992186307907104        0.99955552816391                       0                       0                       0                       4 
                 1.0501     0.00250062515628907        1.87578418235944        1.83867757838966     0.00927008721687038        7.11029910140925        2.48364941733677        1.85368293549547   1.47393537375251E-008                       0                       0                       0                       0   1.47393537375251E-008                       0                       0       0.992186307907104        0.99955552816391                       0                       0                       0                       4 
                 1.0501     0.00275068767191798        1.87580108450136        1.83874137726821      0.0101872610720088        7.11012761174075        2.48355712627613          1.853597351634   1.47393537375251E-008                       0                       0                       0                       0   1.47393537375251E-008                       0                       0       0.992186307907104        0.99955552816391                       0                       0                       0                       4 
                 1.0501     0.00300075018754689        1.87578560904451        1.83878780472541      0.0110922774491224        7.10992235800274        2.48345172277501        1.85353401324048   1.47393537375251E-008                       0                       0                       0                       0   1.47393537375251E-008                       0                       0       0.992186307907104        0.99955552816391                       0                       0                       0                       4 
                 1.0501     0.00325081270317579        1.87576843861462        1.83883513072279      0.0119984724576118        7.10972532731978        2.48334891482606        1.85347429233903   1.47393537375251E-008                       0                       0                       0                       0   1.47393537375251E-008                       0                       0       0.992186307907104        0.99955552816391                       0                       0                       0                       4 
                 1.0501      0.0035008752188047         1.8757309216219        1.83885642615274      0.0128949674939824        7.10950012988806         2.4832408739171        1.85343073089399   1.47393537375251E-008                       0                       0                       0                       0   1.47393537375251E-008                       0                       0       0.992186307907104        0.99955552816391                       0                       0                       0                       4 
                 1.0501     0.00375093773443361        1.87568601021622        1.83886855276885      0.0137894819151092        7.10927541188691        2.48313506114292        1.85339612174625   1.47393537375251E-008                       0                       0                       0                       0   1.47393537375251E-008                       0                       0       0.992186307907104        0.99955552816391                       0                       0                       0                       4 
                 1.0501     0.00400100025006252         1.8756299470357        1.83885431840325      0.0146770654984778        7.10902887316777         2.4830285593572        1.85337201789574   1.47393537375251E-008                       0                       0                       0                       0   1.47393537375251E-008                       0                       0       0.992186307907104        0.99955552816391                       0                       0                       0                       4 
                 1.0501     0.00425106276569142        1.87556346527748        1.83881262645318      0.0155591980107282        7.10877367765357        2.48292714650568        1.85336203758337   1.47393537375251E-008                       0                       0                       0                       0   1.47393537375251E-008                       0                       0       0.992186307907104        0.99955552816391                       0                       0                       0                       4 
                 1.0501     0.00450112528132033        1.87550035187778        1.83874964310477      0.0164455035395348        7.10852852710615        2.48283879195301        1.85335833624266   7.45876604923978E-009                       0                       0                       0                       0   7.45876604923978E-009                       0                       0       0.998642981052399       0.999370038509369                       0                       0                       0                       4 
                 1.0501     0.00475118779694924        1.87541700663659        1.83861313246872      0.0173126367818132        7.10819501455994        2.48273965425173        1.85336671114531   7.45876604923978E-009                       0                       0                       0                       0   7.45876604923978E-009                       0                       0       0.998642981052399       0.999370038509369                       0                       0                       0                       4 
                 1.0501     0.00500125031257814        1.87533345154266        1.83847614965961      0.0181791569718952         7.1078601202229        2.48264009416762        1.85337497978436   7.45876604923978E-009                       0                       0                       0                       0   7.45876604923978E-009                       0                       0       0.998642981052399       0.999370038509369                       0                       0                       0                       4 
                 1.0501     0.00525131282820705        1.87526971034571         1.8383090567139      0.0190485746510785        7.10755656953458        2.48256839311851        1.85338447850684   7.45876604923978E-009                       0                       0                       0                       0   7.45876604923978E-009                       0                       0       0.998642981052399       0.999370038509369                       0                       0                       0                       4 
                 1.0501     0.00550137534383596         1.8752062870969        1.83814255727137      0.0199181416996438        7.10725479935579        2.48249724317948        1.85339408321203   7.45876604923978E-009                       0                       0                       0                       0   7.45876604923978E-009                       0                       0       0.998642981052399       0.999370038509369                       0                       0                       0                       4 
                 1.0501     0.00575143785946487         1.8751508238026        1.83797235965038      0.0207796703152856        7.10695682731589        2.48243033014981         1.8533989490231   7.45876604923978E-009                       0                       0                       0                       0   7.45876604923978E-009                       0                       0       0.998642981052399       0.999370038509369                       0                       0                       0                       4 
                 1.0501     0.00600150037509377        1.87509915151851        1.83780366010604      0.0216412062183361        7.10666922249475        2.48236765805445        1.85340313431714   7.45876604923978E-009                       0                       0                       0                       0   7.45876604923978E-009                       0                       0       0.998642981052399       0.999370038509369                       0                       0                       0                       4 
                 1.0501     0.00625156289072268        1.87504718439875        1.83764581109378      0.0224886566339491        7.10636574160474        2.48229419151578        1.85339958550319   7.45876604923978E-009                       0                       0                       0                       0   7.45876604923978E-009                       0                       0       0.998642981052399       0.999370038509369                       0                       0                       0                       4 
                 1.0501     0.00650162540635159        1.87499899990007         1.8375022770916      0.0233310679212368          7.106072342007        2.48221971480735        1.85339164418269   7.45876604923978E-009                       0                       0                       0                       0   7.45876604923978E-009                       0                       0       0.998642981052399       0.999370038509369                       0                       0                       0                       4 
                 1.0501     0.00675168792198049        1.87492907440786        1.83732726944372      0.0241425692944141        7.10565530031378        2.48210407537352        1.85337447737253   1.61523558972476E-008                       0                       0                       0                       0   1.61523558972476E-008                       0                       0       0.998369932174683       0.998326480388641                       0                       0                       0                       4 
                 1.0501      0.0070017504376094        1.87485513780209        1.83715925575896      0.0249435014937136        7.10522032204058        2.48197740989756        1.85335300760726   1.61523558972476E-008                       0                       0                       0                       0   1.61523558972476E-008                       0                       0       0.998369932174683       0.998326480388641                       0                       0                       0                       4 
                 1.0501     0.00725181295323831        1.87476854540152        1.83697438300006      0.0257272473558825        7.10471505147955        2.48182688434962        1.85332622404615   1.61523558972476E-008                       0                       0                       0                       0   1.61523558972476E-008                       0                       0       0.998369932174683       0.998326480388641                       0                       0                       0                       4 
                 1.0501     0.00750187546886722        1.87460273333465        1.83668471854911      0.0264031487629336        7.10376943387041        2.48152656152305        1.85326579792609   1.61523558972476E-008                       0                       0                       0                       0   1.61523558972476E-008                       0                       0       0.998369932174683       0.998326480388641                       0                       0                       0                       4 
                 1.0501     0.00775193798449612        1.87444642883059        1.83640811377107      0.0270922461173403        7.10287635726019         2.4812438934395        1.85320913553121   1.61523558972476E-008                       0                       0                       0                       0   1.61523558972476E-008                       0                       0       0.998369932174683       0.998326480388641                       0                       0                       0                       4 
                 1.0501     0.00800200050012503        1.87415106547554        1.83595340348318      0.0275953806384533          7.101219687202        2.48069975460444        1.85309474683604   1.61523558972476E-008                       0                       0                       0                       0   1.61523558972476E-008                       0                       0       0.998369932174683       0.998326480388641                       0                       0                       0                       4 
                 1.0501     0.00825206301575394        1.87386067070178        1.83550713346592      0.0281054746595065        7.09959107260975         2.4801643593619        1.85298201227956   1.61523558972476E-008                       0                       0                       0                       0   1.61523558972476E-008                       0                       0       0.998369932174683       0.998326480388641                       0                       0                       0                       4 
                 1.0501     0.00850212553138285        1.87342153513988         1.8348727586457      0.0284184473001434        7.09714971179942        2.47935014226215        1.85280789670017   1.61523558972476E-008                       0                       0                       0                       0   1.61523558972476E-008                       0                       0       0.998369932174683       0.998326480388641                       0                       0                       0                       4 
                 1.0501     0.00875218804701175        1.87294655792407        1.83419726291933      0.0286841749052098        7.09451469359855          2.478468011057        1.85261837800087   1.61523558972476E-008                       0                       0                       0                       0   1.61523558972476E-008                       0                       0       0.998369932174683       0.998326480388641                       0                       0                       0                       4 
                 1.0501     0.00900225056264066        1.87233741223034        1.83334124494338      0.0287745674867184        7.09114805892198        2.47733928810689        1.85237700677843   7.42390593444497E-011                       0                       0                       0                       0   7.42390593444497E-011                       0                       0       0.998751997947693       0.997431337833405                       0                       0                       0                       4 
                 1.0501     0.00925231307826957        1.87164549727351        1.83235045706607      0.0287579562626008        7.08730831992926        2.47605880276142         1.8521039968288   7.42390593444497E-011                       0                       0                       0                       0   7.42390593444497E-011                       0                       0       0.998751997947693       0.997431337833405                       0                       0                       0                       4 
                 1.0501     0.00950237559389847        1.87089452414696        1.83128252437687       0.028662510236552        7.08314816767984        2.47466947436521        1.85180781608812   7.42390593444497E-011                       0                       0                       0                       0   7.42390593444497E-011                       0                       0       0.998751997947693       0.997431337833405                       0                       0                       0                       4 
                 1.0501     0.00975243810952738        1.86997896289126        1.82999921079904      0.0283476708905149        7.07809474057332        2.47297699491841        1.85144723828335   7.42390593444497E-011                       0                       0                       0                       0   7.42390593444497E-011                       0                       0       0.998751997947693       0.997431337833405                       0                       0                       0                       4 
                 1.0501      0.0100025006251563        1.86906846762054        1.82872252480935        0.02803959830764        7.07306878991062        2.47129387549128        1.85108866585339   7.42390593444497E-011                       0                       0                       0                       0   7.42390593444497E-011                       0                       0       0.998751997947693       0.997431337833405                       0                       0                       0                       4 
                 1.0501      0.0102525631407852        1.86803831406024        1.82729706268684      0.0275667079896105        7.06739783936874        2.46938883746654        1.85068142105776   7.42390593444497E-011                       0                       0                       0                       0   7.42390593444497E-011                       0                       0       0.998751997947693       0.997431337833405                       0                       0                       0                       4 
                 1.0501      0.0105026256564141        1.86701184386836        1.82587561878443      0.0270991766064017        7.06174597537235        2.46749053833176        1.85027566216644   7.42390593444497E-011                       0                       0                       0                       0   7.42390593444497E-011                       0                       0       0.998751997947693       0.997431337833405                       0                       0                       0                       4 
                 1.0501       0.010752688172043        1.86597939336675        1.82445884636183      0.0266151075317706        7.05606876735883        2.46557903593001        1.84986506190544   7.42390593444497E-011                       0                       0                       0                       0   7.42390593444497E-011                       0                       0       0.998751997947693       0.997431337833405                       0                       0                       0                       4 
                 1.0501      0.0110027506876719        1.86493586180237        1.82302908792578      0.0261148751854609        7.05033106079561        2.46364639916091        1.84944937705202   7.42390593444497E-011                       0                       0                       0                       0   7.42390593444497E-011                       0                       0       0.998751997947693       0.997431337833405                       0                       0                       0                       4 
                 1.0501      0.0112528132033008        1.86398235667289        1.82171983937159      0.0257310602483343        7.04509031881693        2.46188193354309        1.84907017505663   1.82341138715847E-011                       0                       0                       0                       0   1.82341138715847E-011                       0                       0       0.999838471412659       0.998518109321594                       0                       0                       0                       4 
                 1.0501      0.0115028757189297        1.86302773402868         1.8204183738983      0.0253344382429177         7.0398554818112        2.46011649066524        1.84869103034278   1.82341138715847E-011                       0                       0                       0                       0   1.82341138715847E-011                       0                       0       0.999838471412659       0.998518109321594                       0                       0                       0                       4 
                 1.0501      0.0117529382345586        1.86216113531121        1.81923142283317      0.0250502231853243        7.03510158310551        2.45851487780877        1.84834739138951   1.82341138715847E-011                       0                       0                       0                       0   1.82341138715847E-011                       0                       0       0.999838471412659       0.998518109321594                       0                       0                       0                       4 
                 1.0501      0.0120030007501875        1.86141384016551        1.81819784342548      0.0249141775953989        7.03099913507548        2.45713587595875        1.84805219845173   1.82341138715847E-011                       0                       0                       0                       0   1.82341138715847E-011                       0                       0       0.999838471412659       0.998518109321594                       0                       0                       0                       4 
                 1.0501      0.0122530632658165        1.86068990731657        1.81719622423935      0.0248069191461371        7.02702505608867        2.45580002086977        1.84776623149673   1.82341138715847E-011                       0                       0                       0                       0   1.82341138715847E-011                       0                       0       0.999838471412659       0.998518109321594                       0                       0                       0                       4 
                 1.0501      0.0125031257814454        1.86012407918615        1.81641130425728      0.0248919721879931        7.02392006919853        2.45475623233729        1.84754263266745   1.82341138715847E-011                       0                       0                       0                       0   1.82341138715847E-011                       0                       0       0.999838471412659       0.998518109321594                       0                       0                       0                       4 
                 1.0501      0.0127531882970743         1.8595476354187        1.81561223504152      0.0249619844775196        7.02075706005735        2.45369284570568         1.8473148024304   1.82341138715847E-011                       0                       0                       0                       0   1.82341138715847E-011                       0                       0       0.999838471412659       0.998518109321594                       0                       0                       0                       4 
                 1.0501      0.0130032508127032        1.85911043688982        1.81501846751633      0.0251947844017959        7.01836536765604         2.4528833744543        1.84713966314927   1.82341138715847E-011                       0                       0                       0                       0   1.82341138715847E-011                       0                       0       0.999838471412659       0.998518109321594                       0                       0                       0                       4 
                 1.0501      0.0132533133283321        1.85867683042274        1.81443182978529       0.025427734358646        7.01599456353016        2.45208012129106        1.84696565179266   1.82341138715847E-011                       0                       0                       0                       0   1.82341138715847E-011                       0                       0       0.999838471412659       0.998518109321594                       0                       0                       0                       4 
                 1.0501       0.013503375843961        1.85827879312247        1.81386802202849      0.0256926165271662        7.01379612088279        2.45134368930468         1.8468063850041    1.0361230103062E-011                       0                       0                       0                       0    1.0361230103062E-011                       0                       0       0.999709784984589       0.999394476413727                       0                       0                       0                       4 