VARIABLES = "x"
 "y"
 "rho"
 "rhoU"
 "rhoV"
 "rhoE"
 "P"
 "T"
 "ABV"
 "error"
 "error_hMLP"
 "error_BD"
 "ABV_P"
 "ABV_I"
 "ABV_I_BD"
 "ABV_D"
 "Ducros"
 "Sk"
 "trouble_vertex"
 "trouble_face"
 "hMLP_penalty"
 "BD_penalty"
ZONE
DT=(DOUBLE,DOUBLE,DOUBLE,DOUBLE,DOUBLE,DOUBLE,DOUBLE,DOUBLE,DOUBLE,DOUBLE,DOUBLE,DOUBLE,DOUBLE,DOUBLE,DOUBLE,DOUBLE,DOUBLE,DOUBLE,DOUBLE,DOUBLE,DOUBLE,DOUBLE)
                 0.5201                       0        1.95134331274963        1.72682603602119   1.79736689986735E-005        7.36815071248428        2.64163193324531        1.89525074042728   2.61442365152853E-012                       0                       0                       0                       0   2.61442365152853E-012   8.43380492485481E-020                       0       0.563576638698578       0.999396562576294                       0                       0                       0                       3 
                 0.5201    0.000250062515628907        1.95135579347758        1.72682053099244   -0.000153096195130699        7.36814526080009        2.64163365016712        1.89523982641421   2.61442365152853E-012                       0                       0                       0                       0   2.61442365152853E-012   8.43380492485481E-020                       0       0.563576638698578       0.999396562576294                       0                       0                       0                       3 
                 0.5201    0.000500125031257815        1.95136797375128         1.7268175798248   -0.000325625812731558        7.36813903651925        2.64163407942787        1.89522829003163   2.61442365152853E-012                       0                       0                       0                       0   2.61442365152853E-012   8.43380492485481E-020                       0       0.563576638698578       0.999396562576294                       0                       0                       0                       3 
                 0.5201    0.000750187546886722        1.95139485587636        1.72697353758051   -0.000504957020726483        7.36827906080789        2.64163908865831        1.89520575765835   2.61442365152853E-012                       0                       0                       0                       0   2.61442365152853E-012   8.43380492485481E-020                       0       0.563576638698578       0.999396562576294                       0                       0                       0                       3 
                 0.5201     0.00100025006251563        1.95142388463439        1.72717480721334   -0.000686342336306367        7.36845312604087        2.64164209348354        1.89517968006796   2.61442365152853E-012                       0                       0                       0                       0   2.61442365152853E-012   8.43380492485481E-020                       0       0.563576638698578       0.999396562576294                       0                       0                       0                       3 
                 0.5201     0.00125031257814454        1.95146688376435        1.72741046218622   -0.000875534765306599        7.36866309791265         2.6416494055687        1.89514315660018   2.61442365152853E-012                       0                       0                       0                       0   2.61442365152853E-012   8.43380492485481E-020                       0       0.563576638698578       0.999396562576294                       0                       0                       0                       3 
                 0.5201     0.00150037509377344        1.95151576583194        1.72766914544399    -0.00106864985874309        7.36888223552408        2.64165305428505         1.8950983525097   2.61442365152853E-012                       0                       0                       0                       0   2.61442365152853E-012   8.43380492485481E-020                       0       0.563576638698578       0.999396562576294                       0                       0                       0                       3 
                 0.5201     0.00175043760940235        1.95157588245273        1.72790205214288     -0.0012688735806122        7.36908440446635        2.64166080136641        1.89504556739261   2.61442365152853E-012                       0                       0                       0                       0   2.61442365152853E-012   8.43380492485481E-020                       0       0.563576638698578       0.999396562576294                       0                       0                       0                       3 
                 0.5201     0.00200050012503126        1.95164846683148        1.72807215054003    -0.00147702219201811        7.36921576213269        2.64166444208004        1.89497769190857   2.61442365152853E-012                       0                       0                       0                       0   2.61442365152853E-012   8.43380492485481E-020                       0       0.563576638698578       0.999396562576294                       0                       0                       0                       3 
                 0.5201     0.00225056264066016        1.95168108512661        1.72833571183465    -0.00170794523789592        7.36945941075141        2.64167361098405         1.8949525063659   3.17750201150879E-011                       0                       0                       0                       0   3.17750201150879E-011                       0                       0     0.00843293592333794       0.999172389507294                       0                       0                       0                       4 
                 0.5201     0.00250062515628907         1.9517778387027        1.72861221156031    -0.00192095550472929        7.36970391736092        2.64168847864747        1.89486926054062   3.17750201150879E-011                       0                       0                       0                       0   3.17750201150879E-011                       0                       0     0.00843293592333794       0.999172389507294                       0                       0                       0                       4 
                 0.5201     0.00275068767191798        1.95187179314874        1.72888323606456     -0.0021316359668043        7.36993507427328        2.64169953211171        1.89478598395567   3.17750201150879E-011                       0                       0                       0                       0   3.17750201150879E-011                       0                       0     0.00843293592333794       0.999172389507294                       0                       0                       0                       4 
                 0.5201     0.00300075018754689        1.95192682090193         1.7291091471032    -0.00236870994279077        7.37015966351526         2.6417179138437        1.89474569157763   3.17750201150879E-011                       0                       0                       0                       0   3.17750201150879E-011                       0                       0     0.00843293592333794       0.999172389507294                       0                       0                       0                       4 
                 0.5201     0.00325081270317579        1.95197285911707        1.72931932389654    -0.00260602154878872        7.37036227458793        2.64173165018761        1.89471081414192   3.17750201150879E-011                       0                       0                       0                       0   3.17750201150879E-011                       0                       0     0.00843293592333794       0.999172389507294                       0                       0                       0                       4 
                 0.5201      0.0035008752188047         1.9520030460066        1.72949624219033    -0.00286282210775338         7.3705488831737        2.64174815377496        1.89469336740119   3.17750201150879E-011                       0                       0                       0                       0   3.17750201150879E-011                       0                       0     0.00843293592333794       0.999172389507294                       0                       0                       0                       4 
                 0.5201     0.00375093773443361        1.95201994814852        1.72964079574695    -0.00312617116574733        7.37069890980484        2.64175942186957        1.89468505047421   3.17750201150879E-011                       0                       0                       0                       0   3.17750201150879E-011                       0                       0     0.00843293592333794       0.999172389507294                       0                       0                       0                       4 
                 0.5201     0.00400100025006252        1.95203574846015         1.7297660947632    -0.00340236772527749        7.37083388833461        2.64177131380805        1.89467824701243   3.17750201150879E-011                       0                       0                       0                       0   3.17750201150879E-011                       0                       0     0.00843293592333794       0.999172389507294                       0                       0                       0                       4 
                 0.5201     0.00425106276569142        1.95204229468654        1.72984046418765    -0.00369116033374052        7.37090707729201        2.64177506983958        1.89467459829608   3.17750201150879E-011                       0                       0                       0                       0   3.17750201150879E-011                       0                       0     0.00843293592333794       0.999172389507294                       0                       0                       0                       4 
                 0.5201     0.00450112528132033          1.952018885656         1.7298018353397    -0.00391904400909718        7.37091482684036        2.64178794547858        1.89470658320904    1.2851136821368E-010                       0                       0                       0                       0    1.2851136821368E-010                       0                       0       0.136720985174179       0.999382495880127                       0                       0                       0                       4 
                 0.5201     0.00475118779694924        1.95201425174217        1.72986232924772    -0.00426979198879536        7.37094319890402        2.64177684018554        1.89470313677673    1.2851136821368E-010                       0                       0                       0                       0    1.2851136821368E-010                       0                       0       0.136720985174179       0.999382495880127                       0                       0                       0                       4 
                 0.5201     0.00500125031257814        1.95200940243338        1.72993058573101    -0.00462230153394707        7.37097490301839        2.64176428269361        1.89469886294931    1.2851136821368E-010                       0                       0                       0                       0    1.2851136821368E-010                       0                       0       0.136720985174179       0.999382495880127                       0                       0                       0                       4 
                 0.5201     0.00525131282820705         1.9520001593558        1.72994547766891    -0.00494836765665921        7.37095808606128        2.64175043093064        1.89469793679522    1.2851136821368E-010                       0                       0                       0                       0    1.2851136821368E-010                       0                       0       0.136720985174179       0.999382495880127                       0                       0                       0                       4 
                 0.5201     0.00550137534383596        1.95199066196575        1.72996683338213    -0.00527387879538374        7.37094542287455         2.6417359433865        1.89469675632866    1.2851136821368E-010                       0                       0                       0                       0    1.2851136821368E-010                       0                       0       0.136720985174179       0.999382495880127                       0                       0                       0                       4 
                 0.5201     0.00575143785946487        1.95198335111178         1.7299841633791    -0.00560321243157694        7.37091031293366        2.64171422833818        1.89468825263503    1.2851136821368E-010                       0                       0                       0                       0    1.2851136821368E-010                       0                       0       0.136720985174179       0.999382495880127                       0                       0                       0                       4 
                 0.5201     0.00600150037509377        1.95197659025218        1.72999333883142    -0.00592659912731285        7.37086910388466        2.64169297992229        1.89467961375887    1.2851136821368E-010                       0                       0                       0                       0    1.2851136821368E-010                       0                       0       0.136720985174179       0.999382495880127                       0                       0                       0                       4 
                 0.5201     0.00625156289072268        1.95197533637716        1.73003298110645    -0.00627324650033271        7.37082526452854        2.64166072410021         1.8946577112076    1.2851136821368E-010                       0                       0                       0                       0    1.2851136821368E-010                       0                       0       0.136720985174179       0.999382495880127                       0                       0                       0                       4 
                 0.5201     0.00650162540635159        1.95197860948898        1.73006506833386    -0.00661951075260596         7.3707720362182        2.64162820761224           1.89463115071    1.2851136821368E-010                       0                       0                       0                       0    1.2851136821368E-010                       0                       0       0.136720985174179       0.999382495880127                       0                       0                       0                       4 
                 0.5201     0.00675168792198049        1.95194417070953        1.73056899435647    -0.00699026466650492        7.37097450955925        2.64152467110214        1.89459035133723   4.58133253555815E-010                       0                       0                       0                       0   4.58133253555815E-010                       0                       0     0.00176618993282318       0.998228251934052                       1                       0                       0                       4 
                 0.5201      0.0070017504376094          1.951964256582        1.73060057875909    -0.00732537908500456         7.3708928915552        2.64148344354592        1.89454128451542   4.58133253555815E-010                       0                       0                       0                       0   4.58133253555815E-010                       0                       0     0.00176618993282318       0.998228251934052                       1                       0                       0                       4 
                 0.5201     0.00725181295323831        1.95198599676832        1.73067127245006    -0.00767685865324296        7.37083850745896        2.64143944591002        1.89448862063972   4.58133253555815E-010                       0                       0                       0                       0   4.58133253555815E-010                       0                       0     0.00176618993282318       0.998228251934052                       1                       0                       0                       4 
                 0.5201     0.00750187546886722        1.95201454743248        1.73099342936966    -0.00811845785076493        7.37096970588218        2.64138142003972        1.89441926553423   4.58133253555815E-010                       0                       0                       0                       0   4.58133253555815E-010                       0                       0     0.00176618993282318       0.998228251934052                       1                       0                       0                       4 
                 0.5201     0.00775193798449612        1.95204448835705        1.73127679500163    -0.00854254633124587        7.37108174289023         2.6413298014565        1.89435315940687   4.58133253555815E-010                       0                       0                       0                       0   4.58133253555815E-010                       0                       0     0.00176618993282318       0.998228251934052                       1                       0                       0                       4 
                 0.5201     0.00800200050012503        1.95210037748773        1.73181529666608    -0.00908310020411101        7.37138363209453        2.64126723295245         1.8942540302209   4.58133253555815E-010                       0                       0                       0                       0   4.58133253555815E-010                       0                       0     0.00176618993282318       0.998228251934052                       1                       0                       0                       4 
                 0.5201     0.00825206301575394        1.95215451797678        1.73231924857206    -0.00959444092528825        7.37167810484369        2.64121379001183        1.89416313429578   4.58133253555815E-010                       0                       0                       0                       0   4.58133253555815E-010                       0                       0     0.00176618993282318       0.998228251934052                       1                       0                       0                       4 
                 0.5201     0.00850212553138285        1.95224597765661        1.73300530474042     -0.0102139399148028        7.37211067368928        2.64115626727776        1.89403315578122   4.58133253555815E-010                       0                       0                       0                       0   4.58133253555815E-010                       0                       0     0.00176618993282318       0.998228251934052                       1                       0                       0                       4 
                 0.5201     0.00875218804701175        1.95233998579964        1.73369078078335     -0.0108090850381905        7.37257234381635        2.64111108756519        1.89390963594945   4.58133253555815E-010                       0                       0                       0                       0   4.58133253555815E-010                       0                       0     0.00176618993282318       0.998228251934052                       1                       0                       0                       4 
                 0.5201     0.00900225056264066        1.95247498821044        1.73425716298622     -0.0117248728629337        7.37276656345413          2.641006414131        1.89370375002016   4.01897570778686E-010                       0                       0                       0                       0   4.01897570778686E-010                       0                       0     0.00141678191721439       0.998598635196686                       0                       0                       0                       4 
                 0.5201     0.00925231307826957        1.95256507934751        1.73519316643772     -0.0123008647326513        7.37344887369772        2.64095962468995        1.89358280575395   4.01897570778686E-010                       0                       0                       0                       0   4.01897570778686E-010                       0                       0     0.00141678191721439       0.998598635196686                       0                       0                       0                       4 
                 0.5201     0.00950237559389847         1.9526751465904        1.73621059085567     -0.0129998400393349        7.37417822164163        2.64090515308748        1.89343701255463   4.01897570778686E-010                       0                       0                       0                       0   4.01897570778686E-010                       0                       0     0.00141678191721439       0.998598635196686                       0                       0                       0                       4 
                 0.5201     0.00975243810952738        1.95279867144398        1.73727732516443     -0.0138797972876678        7.37488399212909        2.64082493547613        1.89325972644073   4.01897570778686E-010                       0                       0                       0                       0   4.01897570778686E-010                       0                       0     0.00141678191721439       0.998598635196686                       0                       0                       0                       4 
                 0.5201      0.0100025006251563        1.95291265427306        1.73830111048249     -0.0147176121454919        7.37555417152564        2.64074450269553        1.89309152365684   4.01897570778686E-010                       0                       0                       0                       0   4.01897570778686E-010                       0                       0     0.00141678191721439       0.998598635196686                       0                       0                       0                       4 
                 0.5201      0.0102525631407852        1.95309960506634        1.73940033334386     -0.0157968607240324        7.37620428552858        2.64063890284874        1.89283463502866   4.01897570778686E-010                       0                       0                       0                       0   4.01897570778686E-010                       0                       0     0.00141678191721439       0.998598635196686                       0                       0                       0                       4 
                 0.5201      0.0105026256564141        1.95326100717492        1.74043925210262     -0.0167918485673902        7.37679430467285        2.64052740232293        1.89259827323069   4.01897570778686E-010                       0                       0                       0                       0   4.01897570778686E-010                       0                       0     0.00141678191721439       0.998598635196686                       0                       0                       0                       4 
                 0.5201       0.010752688172043        1.95350809936793        1.74145427111381     -0.0179008861945755        7.37730617968524        2.64040520682045        1.89227139018435   4.01897570778686E-010                       0                       0                       0                       0   4.01897570778686E-010                       0                       0     0.00141678191721439       0.998598635196686                       0                       0                       0                       4 
                 0.5201      0.0110027506876719        1.95374387053689        1.74244055009801     -0.0189597051234462        7.37775024936987        2.64026473141755        1.89194236223532   4.01897570778686E-010                       0                       0                       0                       0   4.01897570778686E-010                       0                       0     0.00141678191721439       0.998598635196686                       0                       0                       0                       4 
                 0.5201      0.0112528132033008        1.95399243875364        1.74388861047869     -0.0200905929092404        7.37886973681473        2.64023020266391        1.89167700453843   1.43407285829386E-014                       0                       0                       0                       0   1.43407285829386E-014                       0                       0     0.00515128392726183       0.997898817062378                       1                       0                       0                       4 
                 0.5201      0.0115028757189297        1.95420830334234        1.74530721052745      -0.021398485558831        7.37971538084107        2.64009101480831        1.89136825861663   1.43407285829386E-014                       0                       0                       0                       0   1.43407285829386E-014                       0                       0     0.00515128392726183       0.997898817062378                       1                       0                       0                       4 
                 0.5201      0.0117529382345586        1.95444325366574        1.74667151527083     -0.0226600380885512        7.38052829588688        2.63996049050637        1.89104735039833   1.43407285829386E-014                       0                       0                       0                       0   1.43407285829386E-014                       0                       0     0.00515128392726183       0.997898817062378                       1                       0                       0                       4 
                 0.5201      0.0120030007501875         1.9546769149924        1.74798334458017      -0.023909277217927        7.38130544165009        2.63983363588185        1.89073048045161   1.43407285829386E-014                       0                       0                       0                       0   1.43407285829386E-014                       0                       0     0.00515128392726183       0.997898817062378                       1                       0                       0                       4 
                 0.5201      0.0122530632658165        1.95491396614254        1.74926023680325     -0.0251411512203268        7.38205182606369        2.63970742781117        1.89041084040013   1.43407285829386E-014                       0                       0                       0                       0   1.43407285829386E-014                       0                       0     0.00515128392726183       0.997898817062378                       1                       0                       0                       4 
                 0.5201      0.0125031257814454        1.95517552600567        1.75031126767911     -0.0263049307563497         7.3826035891863        2.63958737191685        1.89007205596091   1.43407285829386E-014                       0                       0                       0                       0   1.43407285829386E-014                       0                       0     0.00515128392726183       0.997898817062378                       1                       0                       0                       4 
                 0.5201      0.0127531882970743        1.95543131186059        1.75137889326237      -0.027501834304283         7.3831687111968        2.63946589107449        1.88973776901395   1.43407285829386E-014                       0                       0                       0                       0   1.43407285829386E-014                       0                       0     0.00515128392726183       0.997898817062378                       1                       0                       0                       4 
                 0.5201      0.0130032508127032        1.95571779102132        1.75206785641231     -0.0285815779591428        7.38338162705841        2.63934374625215        1.88937361286564   1.43407285829386E-014                       0                       0                       0                       0   1.43407285829386E-014                       0                       0     0.00515128392726183       0.997898817062378                       1                       0                       0                       4 
                 0.5201      0.0132533133283321        1.95600673679847         1.7527450143896     -0.0297192591983568        7.38358659880747        2.63922290950374         1.8890079368264   1.43407285829386E-014                       0                       0                       0                       0   1.43407285829386E-014                       0                       0     0.00515128392726183       0.997898817062378                       1                       0                       0                       4 
                 0.5201       0.013503375843961        1.95620563255127        1.75346644352919     -0.0305121440284332        7.38389207440795        2.63911352211711        1.88873750724107   9.15633874601883E-014                       0                       0                       0                       0   9.15633874601883E-014                       0                       0      0.0878475829958916       0.999025404453278                       0                       0                       0                       4 