VARIABLES = "x"
 "y"
 "rho"
 "rhoU"
 "rhoV"
 "rhoE"
 "P"
 "T"
 "ABV"
 "error"
 "error_hMLP"
 "error_BD"
 "ABV_P"
 "ABV_I"
 "ABV_I_BD"
 "ABV_D"
 "Ducros"
 "Sk"
 "trouble_vertex"
 "trouble_face"
 "hMLP_penalty"
 "BD_penalty"
ZONE
DT=(DOUBLE,DOUBLE,DOUBLE,DOUBLE,DOUBLE,DOUBLE,DOUBLE,DOUBLE,DOUBLE,DOUBLE,DOUBLE,DOUBLE,DOUBLE,DOUBLE,DOUBLE,DOUBLE,DOUBLE,DOUBLE,DOUBLE,DOUBLE,DOUBLE,DOUBLE)
                 0.5201                       0        1.91296630632676        1.74076907020948     0.00189039365584686        7.20675887660376        2.56588841680403        1.87783936850804   5.02061484439764E-005     0.00055294914636761     0.00055294914636761                       0    5.2530167522491E-006   4.48079699708615E-005   1.45045433441737E-007    1.1536777089205E-010       0.947552263736725       0.991125643253326                       1                       0                       0                       3 
                 0.5201    0.000250062515628924        1.91299884213231        1.74076765224158     0.00174768383040319         7.2068628958884         2.5659359620653        1.87784226584384   5.02061484439764E-005     0.00055294914636761     0.00055294914636761                       0    5.2530167522491E-006   4.48079699708615E-005   1.45045433441737E-007    1.1536777089205E-010       0.947552263736725       0.991125643253326                       1                       0                       0                       3 
                 0.5201    0.000500125031257792        1.91302502703789        1.74077276759881     0.00161504619389141         7.2069441871424        2.56597095575913        1.87784217641452   5.02061484439764E-005     0.00055294914636761     0.00055294914636761                       0    5.2530167522491E-006   4.48079699708615E-005   1.45045433441737E-007    1.1536777089205E-010       0.947552263736725       0.991125643253326                       1                       0                       0                       3 
                 0.5201    0.000750187546886716        1.91305121194346        1.74077788295605     0.00148240855737961         7.2070254783964        2.56600594945296        1.87784208698519   5.02061484439764E-005     0.00055294914636761     0.00055294914636761                       0    5.2530167522491E-006   4.48079699708615E-005   1.45045433441737E-007    1.1536777089205E-010       0.947552263736725       0.991125643253326                       1                       0                       0                       3 
                 0.5201     0.00100025006251564        1.91307739684904        1.74078299831329     0.00134977092086781        7.20710676965039        2.56604094314678        1.87784199755587   5.02061484439764E-005     0.00055294914636761     0.00055294914636761                       0    5.2530167522491E-006   4.48079699708615E-005   1.45045433441737E-007    1.1536777089205E-010       0.947552263736725       0.991125643253326                       1                       0                       0                       3 
                 0.5201     0.00125031257814456        1.91310358175462        1.74078811367052       0.001217133284356        7.20718806090439        2.56607593684061        1.87784190812655   5.02061484439764E-005     0.00055294914636761     0.00055294914636761                       0    5.2530167522491E-006   4.48079699708615E-005   1.45045433441737E-007    1.1536777089205E-010       0.947552263736725       0.991125643253326                       1                       0                       0                       3 
                 0.5201     0.00150037509377343         1.9131297666602        1.74079322902776     0.00108449564784423        7.20726935215839        2.56611093053444        1.87784181869723   5.02061484439764E-005     0.00055294914636761     0.00055294914636761                       0    5.2530167522491E-006   4.48079699708615E-005   1.45045433441737E-007    1.1536777089205E-010       0.947552263736725       0.991125643253326                       1                       0                       0                       3 
                 0.5201     0.00175043760940236        1.91315595156577          1.740798344385    0.000951858011332426        7.20735064341238        2.56614592422826         1.8778417292679   5.02061484439764E-005     0.00055294914636761     0.00055294914636761                       0    5.2530167522491E-006   4.48079699708615E-005   1.45045433441737E-007    1.1536777089205E-010       0.947552263736725       0.991125643253326                       1                       0                       0                       3 
                 0.5201     0.00200050012503128        1.91318213647135        1.74080345974224    0.000819220374820622        7.20743193466638        2.56618091792209        1.87784163983858   5.02061484439764E-005     0.00055294914636761     0.00055294914636761                       0    5.2530167522491E-006   4.48079699708615E-005   1.45045433441737E-007    1.1536777089205E-010       0.947552263736725       0.991125643253326                       1                       0                       0                       3 
                 0.5201     0.00225056264066015        1.91320832137693        1.74080857509947    0.000686582738308849        7.20751322592038        2.56621591161592        1.87784155040926   5.02061484439764E-005     0.00055294914636761     0.00055294914636761                       0    5.2530167522491E-006   4.48079699708615E-005   1.45045433441737E-007    1.1536777089205E-010       0.947552263736725       0.991125643253326                       1                       0                       0                       3 
                 0.5201     0.00250062515628907        1.91323450628251        1.74081369045671    0.000553945101797045        7.20759451717437        2.56625090530975        1.87784146097994   5.02061484439764E-005     0.00055294914636761     0.00055294914636761                       0    5.2530167522491E-006   4.48079699708615E-005   1.45045433441737E-007    1.1536777089205E-010       0.947552263736725       0.991125643253326                       1                       0                       0                       3 
                 0.5201     0.00275068767191799        1.91326069118809        1.74081880581395    0.000421307465285241        7.20767580842837        2.56628589900357        1.87784137155061   5.02061484439764E-005     0.00055294914636761     0.00055294914636761                       0    5.2530167522491E-006   4.48079699708615E-005   1.45045433441737E-007    1.1536777089205E-010       0.947552263736725       0.991125643253326                       1                       0                       0                       3 
                 0.5201     0.00300075018754686        1.91328687609366        1.74082392117118    0.000288669828773467        7.20775709968237         2.5663208926974        1.87784128212129   5.02061484439764E-005     0.00055294914636761     0.00055294914636761                       0    5.2530167522491E-006   4.48079699708615E-005   1.45045433441737E-007    1.1536777089205E-010       0.947552263736725       0.991125643253326                       1                       0                       0                       3 
                 0.5201     0.00325081270317579        1.91331306099924        1.74082903652842    0.000156032192261664        7.20783839093636        2.56635588639123        1.87784119269197   5.02061484439764E-005     0.00055294914636761     0.00055294914636761                       0    5.2530167522491E-006   4.48079699708615E-005   1.45045433441737E-007    1.1536777089205E-010       0.947552263736725       0.991125643253326                       1                       0                       0                       3 
                 0.5201     0.00350087521880471        1.91333924590482        1.74083415188566   2.33945557498604E-005        7.20791968219036        2.56639088008506        1.87784110326265   5.02061484439764E-005     0.00055294914636761     0.00055294914636761                       0    5.2530167522491E-006   4.48079699708615E-005   1.45045433441737E-007    1.1536777089205E-010       0.947552263736725       0.991125643253326                       1                       0                       0                       3 
                 0.5201     0.00375093773443363         1.9133654308104         1.7408392672429   -0.000109243080761943        7.20800097344436        2.56642587377888        1.87784101383333   5.02061484439764E-005     0.00055294914636761     0.00055294914636761                       0    5.2530167522491E-006   4.48079699708615E-005   1.45045433441737E-007    1.1536777089205E-010       0.947552263736725       0.991125643253326                       1                       0                       0                       3 
                 0.5201      0.0040010002500625        1.91339161571598        1.74084438260013   -0.000241880717273717        7.20808226469835        2.56646086747271          1.877840924404   5.02061484439764E-005     0.00055294914636761     0.00055294914636761                       0    5.2530167522491E-006   4.48079699708615E-005   1.45045433441737E-007    1.1536777089205E-010       0.947552263736725       0.991125643253326                       1                       0                       0                       3 
                 0.5201     0.00425106276569143        1.91341780062155        1.74084949795737    -0.00037451835378552        7.20816355595235        2.56649586116654        1.87784083497468   5.02061484439764E-005     0.00055294914636761     0.00055294914636761                       0    5.2530167522491E-006   4.48079699708615E-005   1.45045433441737E-007    1.1536777089205E-010       0.947552263736725       0.991125643253326                       1                       0                       0                       3 
                 0.5201     0.00450112528132035        1.91344398552713        1.74085461331461   -0.000507155990297324        7.20824484720635        2.56653085486036        1.87784074554536   5.02061484439764E-005     0.00055294914636761     0.00055294914636761                       0    5.2530167522491E-006   4.48079699708615E-005   1.45045433441737E-007    1.1536777089205E-010       0.947552263736725       0.991125643253326                       1                       0                       0                       3 
                 0.5201     0.00475118779694922        1.91347017043271        1.74085972867185   -0.000639793626809098        7.20832613846035        2.56656584855419        1.87784065611604   5.02061484439764E-005     0.00055294914636761     0.00055294914636761                       0    5.2530167522491E-006   4.48079699708615E-005   1.45045433441737E-007    1.1536777089205E-010       0.947552263736725       0.991125643253326                       1                       0                       0                       3 
                 0.5201     0.00500125031257814        1.91349635533829        1.74086484402908   -0.000772431263320901        7.20840742971434        2.56660084224802        1.87784056668671   5.02061484439764E-005     0.00055294914636761     0.00055294914636761                       0    5.2530167522491E-006   4.48079699708615E-005   1.45045433441737E-007    1.1536777089205E-010       0.947552263736725       0.991125643253326                       1                       0                       0                       3 
                 0.5201     0.00525131282820707        1.91352254024386        1.74086995938632   -0.000905068899832705        7.20848872096834        2.56663583594185        1.87784047725739   5.02061484439764E-005     0.00055294914636761     0.00055294914636761                       0    5.2530167522491E-006   4.48079699708615E-005   1.45045433441737E-007    1.1536777089205E-010       0.947552263736725       0.991125643253326                       1                       0                       0                       3 
                 0.5201     0.00550137534383593        1.91354872514944        1.74087507474356    -0.00103770653634448        7.20857001222234        2.56667082963567        1.87784038782807   5.02061484439764E-005     0.00055294914636761     0.00055294914636761                       0    5.2530167522491E-006   4.48079699708615E-005   1.45045433441737E-007    1.1536777089205E-010       0.947552263736725       0.991125643253326                       1                       0                       0                       3 
                 0.5201     0.00575143785946486        1.91357491005502        1.74088019010079    -0.00117034417285628        7.20865130347633         2.5667058233295        1.87784029839875   5.02061484439764E-005     0.00055294914636761     0.00055294914636761                       0    5.2530167522491E-006   4.48079699708615E-005   1.45045433441737E-007    1.1536777089205E-010       0.947552263736725       0.991125643253326                       1                       0                       0                       3 
                 0.5201     0.00600150037509378         1.9136010949606        1.74088530545803    -0.00130298180936809        7.20873259473033        2.56674081702333        1.87784020896942   5.02061484439764E-005     0.00055294914636761     0.00055294914636761                       0    5.2530167522491E-006   4.48079699708615E-005   1.45045433441737E-007    1.1536777089205E-010       0.947552263736725       0.991125643253326                       1                       0                       0                       3 
                 0.5201     0.00625156289072271        1.91362727986618        1.74089042081527    -0.00143561944587989        7.20881388598432        2.56677581071715         1.8778401195401   5.02061484439764E-005     0.00055294914636761     0.00055294914636761                       0    5.2530167522491E-006   4.48079699708615E-005   1.45045433441737E-007    1.1536777089205E-010       0.947552263736725       0.991125643253326                       1                       0                       0                       3 
                 0.5201     0.00650162540635157        1.91365346477175        1.74089553617251    -0.00156825708239166        7.20889517723832        2.56681080441098        1.87784003011078   5.02061484439764E-005     0.00055294914636761     0.00055294914636761                       0    5.2530167522491E-006   4.48079699708615E-005   1.45045433441737E-007    1.1536777089205E-010       0.947552263736725       0.991125643253326                       1                       0                       0                       3 
                 0.5201      0.0067516879219805        1.91369716956375        1.74093810705227    -0.00171290198825777        7.20905793809256        2.56686755049415        1.87783870012025   5.02061484439764E-005     0.00055294914636761     0.00055294914636761                       0    5.2530167522491E-006   4.48079699708615E-005   1.45045433441737E-007    1.1536777089205E-010       0.947552263736725       0.991125643253326                       1                       0                       0                       3 
                 0.5201     0.00700175043760942        1.91375995779899        1.74106873629731    -0.00185718358348413        7.20932544780876        2.56693728391228        1.87782811062883   5.02061484439764E-005     0.00055294914636761     0.00055294914636761                       0    5.2530167522491E-006   4.48079699708615E-005   1.45045433441737E-007    1.1536777089205E-010       0.947552263736725       0.991125643253326                       1                       0                       0                       3 
                 0.5201     0.00725181295323829        1.91382179370391        1.74120034495952    -0.00199995483291559        7.20958955048346        2.56700515182499        1.87781708399339   5.02061484439764E-005     0.00055294914636761     0.00055294914636761                       0    5.2530167522491E-006   4.48079699708615E-005   1.45045433441737E-007    1.1536777089205E-010       0.947552263736725       0.991125643253326                       1                       0                       0                       3 
                 0.5201     0.00750187546886721        1.91388362960884        1.74133195362173    -0.00214272608234708        7.20985365315817        2.56707301973771        1.87780605735795   5.02061484439764E-005     0.00055294914636761     0.00055294914636761                       0    5.2530167522491E-006   4.48079699708615E-005   1.45045433441737E-007    1.1536777089205E-010       0.947552263736725       0.991125643253326                       1                       0                       0                       3 
                 0.5201     0.00775193798449614        1.91394546551376        1.74146356228393    -0.00228549733177857        7.21011775583287        2.56714088765042         1.8777950307225   5.02061484439764E-005     0.00055294914636761     0.00055294914636761                       0    5.2530167522491E-006   4.48079699708615E-005   1.45045433441737E-007    1.1536777089205E-010       0.947552263736725       0.991125643253326                       1                       0                       0                       3 
                 0.5201     0.00800200050012501        1.91400730141869        1.74159517094614    -0.00242826858121004        7.21038185850757        2.56720875556314        1.87778400408706   5.02061484439764E-005     0.00055294914636761     0.00055294914636761                       0    5.2530167522491E-006   4.48079699708615E-005   1.45045433441737E-007    1.1536777089205E-010       0.947552263736725       0.991125643253326                       1                       0                       0                       3 
                 0.5201     0.00825206301575393        1.91406913732361        1.74172677960834    -0.00257103983064153        7.21064596118227        2.56727662347585        1.87777297745162   5.02061484439764E-005     0.00055294914636761     0.00055294914636761                       0    5.2530167522491E-006   4.48079699708615E-005   1.45045433441737E-007    1.1536777089205E-010       0.947552263736725       0.991125643253326                       1                       0                       0                       3 
                 0.5201     0.00850212553138285        1.91413097322854        1.74185838827055    -0.00271381108007302        7.21091006385697        2.56734449138857        1.87776195081617   5.02061484439764E-005     0.00055294914636761     0.00055294914636761                       0    5.2530167522491E-006   4.48079699708615E-005   1.45045433441737E-007    1.1536777089205E-010       0.947552263736725       0.991125643253326                       1                       0                       0                       3 
                 0.5201     0.00875218804701178        1.91419280913346        1.74198999693275    -0.00285658232950451        7.21117416653167        2.56741235930128        1.87775092418073   5.02061484439764E-005     0.00055294914636761     0.00055294914636761                       0    5.2530167522491E-006   4.48079699708615E-005   1.45045433441737E-007    1.1536777089205E-010       0.947552263736725       0.991125643253326                       1                       0                       0                       3 
                 0.5201     0.00900225056264065        1.91425464503838        1.74212160559496    -0.00299935357893598        7.21143826920637          2.567480227214        1.87773989754529   5.02061484439764E-005     0.00055294914636761     0.00055294914636761                       0    5.2530167522491E-006   4.48079699708615E-005   1.45045433441737E-007    1.1536777089205E-010       0.947552263736725       0.991125643253326                       1                       0                       0                       3 
                 0.5201     0.00925231307826957        1.91431648094331        1.74225321425716    -0.00314212482836747        7.21170237188107        2.56754809512671        1.87772887090984   5.02061484439764E-005     0.00055294914636761     0.00055294914636761                       0    5.2530167522491E-006   4.48079699708615E-005   1.45045433441737E-007    1.1536777089205E-010       0.947552263736725       0.991125643253326                       1                       0                       0                       3 
                 0.5201     0.00950237559389849        1.91437831684823        1.74238482291937    -0.00328489607779896        7.21196647455578        2.56761596303943         1.8777178442744   5.02061484439764E-005     0.00055294914636761     0.00055294914636761                       0    5.2530167522491E-006   4.48079699708615E-005   1.45045433441737E-007    1.1536777089205E-010       0.947552263736725       0.991125643253326                       1                       0                       0                       3 
                 0.5201     0.00975243810952736        1.91444015275316        1.74251643158157    -0.00342766732723042        7.21223057723048        2.56768383095215        1.87770681763896   5.02061484439764E-005     0.00055294914636761     0.00055294914636761                       0    5.2530167522491E-006   4.48079699708615E-005   1.45045433441737E-007    1.1536777089205E-010       0.947552263736725       0.991125643253326                       1                       0                       0                       3 
                 0.5201      0.0100025006251563        1.91450198865808        1.74264804024378    -0.00357043857666192        7.21249467990518        2.56775169886486        1.87769579100351   5.02061484439764E-005     0.00055294914636761     0.00055294914636761                       0    5.2530167522491E-006   4.48079699708615E-005   1.45045433441737E-007    1.1536777089205E-010       0.947552263736725       0.991125643253326                       1                       0                       0                       3 
                 0.5201      0.0102525631407852          1.914563824563        1.74277964890598    -0.00371320982609341        7.21275878257988        2.56781956677758        1.87768476436807   5.02061484439764E-005     0.00055294914636761     0.00055294914636761                       0    5.2530167522491E-006   4.48079699708615E-005   1.45045433441737E-007    1.1536777089205E-010       0.947552263736725       0.991125643253326                       1                       0                       0                       3 
                 0.5201      0.0105026256564141        1.91462566046793        1.74291125756819    -0.00385598107552487        7.21302288525458        2.56788743469029        1.87767373773263   5.02061484439764E-005     0.00055294914636761     0.00055294914636761                       0    5.2530167522491E-006   4.48079699708615E-005   1.45045433441737E-007    1.1536777089205E-010       0.947552263736725       0.991125643253326                       1                       0                       0                       3 
                 0.5201       0.010752688172043        1.91468749637285        1.74304286623039    -0.00399875232495637        7.21328698792928        2.56795530260301        1.87766271109719   5.02061484439764E-005     0.00055294914636761     0.00055294914636761                       0    5.2530167522491E-006   4.48079699708615E-005   1.45045433441737E-007    1.1536777089205E-010       0.947552263736725       0.991125643253326                       1                       0                       0                       3 
                 0.5201      0.0110027506876719        1.91474933227778         1.7431744748926    -0.00414152357438786        7.21355109060398        2.56802317051572        1.87765168446174   5.02061484439764E-005     0.00055294914636761     0.00055294914636761                       0    5.2530167522491E-006   4.48079699708615E-005   1.45045433441737E-007    1.1536777089205E-010       0.947552263736725       0.991125643253326                       1                       0                       0                       3 
                 0.5201      0.0112528132033008         1.9148111681827         1.7433060835548    -0.00428429482381935        7.21381519327868        2.56809103842844         1.8776406578263   5.02061484439764E-005     0.00055294914636761     0.00055294914636761                       0    5.2530167522491E-006   4.48079699708615E-005   1.45045433441737E-007    1.1536777089205E-010       0.947552263736725       0.991125643253326                       1                       0                       0                       3 
                 0.5201      0.0115028757189297        1.91487300408763        1.74343769221701    -0.00442706607325081        7.21407929595338        2.56815890634115        1.87762963119086   5.02061484439764E-005     0.00055294914636761     0.00055294914636761                       0    5.2530167522491E-006   4.48079699708615E-005   1.45045433441737E-007    1.1536777089205E-010       0.947552263736725       0.991125643253326                       1                       0                       0                       3 
                 0.5201      0.0117529382345586        1.91493483999255        1.74356930087921    -0.00456983732268231        7.21434339862808        2.56822677425387        1.87761860455541   5.02061484439764E-005     0.00055294914636761     0.00055294914636761                       0    5.2530167522491E-006   4.48079699708615E-005   1.45045433441737E-007    1.1536777089205E-010       0.947552263736725       0.991125643253326                       1                       0                       0                       3 
                 0.5201      0.0120030007501876        1.91499667589747        1.74370090954142     -0.0047126085721138        7.21460750130279        2.56829464216658        1.87760757791997   5.02061484439764E-005     0.00055294914636761     0.00055294914636761                       0    5.2530167522491E-006   4.48079699708615E-005   1.45045433441737E-007    1.1536777089205E-010       0.947552263736725       0.991125643253326                       1                       0                       0                       3 
                 0.5201      0.0122530632658164         1.9150585118024        1.74383251820362    -0.00485537982154526        7.21487160397749         2.5683625100793        1.87759655128453   5.02061484439764E-005     0.00055294914636761     0.00055294914636761                       0    5.2530167522491E-006   4.48079699708615E-005   1.45045433441737E-007    1.1536777089205E-010       0.947552263736725       0.991125643253326                       1                       0                       0                       3 
                 0.5201      0.0125031257814454        1.91512034770732        1.74396412686583    -0.00499815107097676        7.21513570665219        2.56843037799201        1.87758552464908   5.02061484439764E-005     0.00055294914636761     0.00055294914636761                       0    5.2530167522491E-006   4.48079699708615E-005   1.45045433441737E-007    1.1536777089205E-010       0.947552263736725       0.991125643253326                       1                       0                       0                       3 
                 0.5201      0.0127531882970743        1.91518218361225        1.74409573552803    -0.00514092232040825        7.21539980932689        2.56849824590473        1.87757449801364   5.02061484439764E-005     0.00055294914636761     0.00055294914636761                       0    5.2530167522491E-006   4.48079699708615E-005   1.45045433441737E-007    1.1536777089205E-010       0.947552263736725       0.991125643253326                       1                       0                       0                       3 
                 0.5201      0.0130032508127031        1.91524401951717        1.74422734419024    -0.00528369356983971        7.21566391200159        2.56856611381744         1.8775634713782   5.02061484439764E-005     0.00055294914636761     0.00055294914636761                       0    5.2530167522491E-006   4.48079699708615E-005   1.45045433441737E-007    1.1536777089205E-010       0.947552263736725       0.991125643253326                       1                       0                       0                       3 
                 0.5201      0.0132533133283321        1.91530585542209        1.74435895285244     -0.0054264648192712        7.21592801467629        2.56863398173016        1.87755244474275   5.02061484439764E-005     0.00055294914636761     0.00055294914636761                       0    5.2530167522491E-006   4.48079699708615E-005   1.45045433441737E-007    1.1536777089205E-010       0.947552263736725       0.991125643253326                       1                       0                       0                       3 
                 0.5201       0.013503375843961        1.91539828791037        1.74457004224597    -0.00558619911027232        7.21633912762097        2.56873644229803        1.87753679463619   5.02061484439764E-005     0.00055294914636761     0.00055294914636761                       0    5.2530167522491E-006   4.48079699708615E-005   1.45045433441737E-007    1.1536777089205E-010       0.947552263736725       0.991125643253326                       1                       0                       0                       3 