VARIABLES = "x"
 "y"
 "rho"
 "rhoU"
 "rhoV"
 "rhoE"
 "P"
 "T"
 "ABV"
 "error"
 "error_hMLP"
 "error_BD"
 "ABV_P"
 "ABV_I"
 "ABV_I_BD"
 "ABV_D"
 "Ducros"
 "Sk"
 "trouble_vertex"
 "trouble_face"
 "hMLP_penalty"
 "BD_penalty"
ZONE
DT=(DOUBLE,DOUBLE,DOUBLE,DOUBLE,DOUBLE,DOUBLE,DOUBLE,DOUBLE,DOUBLE,DOUBLE,DOUBLE,DOUBLE,DOUBLE,DOUBLE,DOUBLE,DOUBLE,DOUBLE,DOUBLE,DOUBLE,DOUBLE,DOUBLE,DOUBLE)
                 1.0501                       0        1.85102416895928        1.77420297967245   -0.000169093710899391        6.94541112368004        2.43805042977311        1.84399027288101    9.9681702891985E-009                       0                       0                       0                       0    9.9681702891985E-009                       0                       0       0.957308351993561        0.99754673242569                       1                       0                       0                       3 
                 1.0501    0.000250062515628924        1.85101108992089        1.77418838033558   1.48244997396561E-005        6.94537987707482        2.43804103075133        1.84399619757362    9.9681702891985E-009                       0                       0                       0                       0    9.9681702891985E-009                       0                       0       0.957308351993561        0.99754673242569                       1                       0                       0                       3 
                 1.0501    0.000500125031257792         1.8509980108825        1.77417378099871    0.000198742710378663        6.94534863046959        2.43803163172956        1.84400212226622    9.9681702891985E-009                       0                       0                       0                       0    9.9681702891985E-009                       0                       0       0.957308351993561        0.99754673242569                       1                       0                       0                       3 
                 1.0501    0.000750187546886716        1.85098493184411        1.77415918166184    0.000382660921017711        6.94531738386437        2.43802223270778        1.84400804695883    9.9681702891985E-009                       0                       0                       0                       0    9.9681702891985E-009                       0                       0       0.957308351993561        0.99754673242569                       1                       0                       0                       3 
                 1.0501     0.00100025006251564        1.85097185280572        1.77414458232497    0.000566579131656758        6.94528613725915          2.438012833686        1.84401397165143    9.9681702891985E-009                       0                       0                       0                       0    9.9681702891985E-009                       0                       0       0.957308351993561        0.99754673242569                       1                       0                       0                       3 
                 1.0501     0.00125031257814456        1.85095877376733         1.7741299829881    0.000750497342295806        6.94525489065393        2.43800343466423        1.84401989634404    9.9681702891985E-009                       0                       0                       0                       0    9.9681702891985E-009                       0                       0       0.957308351993561        0.99754673242569                       1                       0                       0                       3 
                 1.0501     0.00150037509377343        1.85094569472894        1.77411538365123    0.000934415552934812        6.94522364404871        2.43799403564245        1.84402582103664    9.9681702891985E-009                       0                       0                       0                       0    9.9681702891985E-009                       0                       0       0.957308351993561        0.99754673242569                       1                       0                       0                       3 
                 1.0501     0.00175043760940236        1.85093261569054        1.77410078431436     0.00111833376357386        6.94519239744349        2.43798463662067        1.84403174572924    9.9681702891985E-009                       0                       0                       0                       0    9.9681702891985E-009                       0                       0       0.957308351993561        0.99754673242569                       1                       0                       0                       3 
                 1.0501     0.00200050012503128        1.85091953665215        1.77408618497749     0.00130225197421291        6.94516115083826         2.4379752375989        1.84403767042185    9.9681702891985E-009                       0                       0                       0                       0    9.9681702891985E-009                       0                       0       0.957308351993561        0.99754673242569                       1                       0                       0                       3 
                 1.0501     0.00225056264066015        1.85090645761376        1.77407158564062     0.00148617018485191        6.94512990423304        2.43796583857712        1.84404359511445    9.9681702891985E-009                       0                       0                       0                       0    9.9681702891985E-009                       0                       0       0.957308351993561        0.99754673242569                       1                       0                       0                       3 
                 1.0501     0.00250062515628907        1.85089337857537        1.77405698630375     0.00167008839549096        6.94509865762782        2.43795643955534        1.84404951980706    9.9681702891985E-009                       0                       0                       0                       0    9.9681702891985E-009                       0                       0       0.957308351993561        0.99754673242569                       1                       0                       0                       3 
                 1.0501     0.00275068767191799        1.85088029953698        1.77404238696688     0.00185400660613001         6.9450674110226        2.43794704053356        1.84405544449966    9.9681702891985E-009                       0                       0                       0                       0    9.9681702891985E-009                       0                       0       0.957308351993561        0.99754673242569                       1                       0                       0                       3 
                 1.0501     0.00300075018754686        1.85086722049859        1.77402778763001     0.00203792481676902        6.94503616441738        2.43793764151179        1.84406136919227    9.9681702891985E-009                       0                       0                       0                       0    9.9681702891985E-009                       0                       0       0.957308351993561        0.99754673242569                       1                       0                       0                       3 
                 1.0501     0.00325081270317579         1.8508541414602        1.77401318829314     0.00222184302740806        6.94500491781216        2.43792824249001        1.84406729388487    9.9681702891985E-009                       0                       0                       0                       0    9.9681702891985E-009                       0                       0       0.957308351993561        0.99754673242569                       1                       0                       0                       3 
                 1.0501     0.00350087521880471        1.85084066776971        1.77399902464253     0.00240612216772757        6.94497243052694        2.43791810726707        1.84407305564771    9.9681702891985E-009                       0                       0                       0                       0    9.9681702891985E-009                       0                       0       0.957308351993561        0.99754673242569                       1                       0                       0                       3 
                 1.0501     0.00375093773443363         1.8508261265619        1.77398603950493     0.00259137760764373        6.94493658725455        2.43790598065096        1.84407837669239    9.9681702891985E-009                       0                       0                       0                       0    9.9681702891985E-009                       0                       0       0.957308351993561        0.99754673242569                       1                       0                       0                       3 
                 1.0501      0.0040010002500625        1.85081158535409        1.77397305436733     0.00277663304755986        6.94490074398216        2.43789385403486        1.84408369773707    9.9681702891985E-009                       0                       0                       0                       0    9.9681702891985E-009                       0                       0       0.957308351993561        0.99754673242569                       1                       0                       0                       3 
                 1.0501     0.00425106276569143        1.85079704414628        1.77396006922972     0.00296188848747602        6.94486490070977        2.43788172741875        1.84408901878174    9.9681702891985E-009                       0                       0                       0                       0    9.9681702891985E-009                       0                       0       0.957308351993561        0.99754673242569                       1                       0                       0                       3 
                 1.0501     0.00450112528132035        1.85078250293847        1.77394708409212     0.00314714392739218        6.94482905743738        2.43786960080264        1.84409433982642    9.9681702891985E-009                       0                       0                       0                       0    9.9681702891985E-009                       0                       0       0.957308351993561        0.99754673242569                       1                       0                       0                       3 
                 1.0501     0.00475118779694922        1.85076796173066        1.77393409895452     0.00333239936730831        6.94479321416499        2.43785747418653         1.8440996608711    9.9681702891985E-009                       0                       0                       0                       0    9.9681702891985E-009                       0                       0       0.957308351993561        0.99754673242569                       1                       0                       0                       3 
                 1.0501     0.00500125031257814        1.85075342052285        1.77392111381692     0.00351765480722447         6.9447573708926        2.43784534757042        1.84410498191578    9.9681702891985E-009                       0                       0                       0                       0    9.9681702891985E-009                       0                       0       0.957308351993561        0.99754673242569                       1                       0                       0                       3 
                 1.0501     0.00525131282820707        1.85073887931504        1.77390812867931     0.00370291024714063        6.94472152762021        2.43783322095432        1.84411030296046    9.9681702891985E-009                       0                       0                       0                       0    9.9681702891985E-009                       0                       0       0.957308351993561        0.99754673242569                       1                       0                       0                       3 
                 1.0501     0.00550137534383593        1.85072433810723        1.77389514354171     0.00388816568705675        6.94468568434782        2.43782109433821        1.84411562400514    9.9681702891985E-009                       0                       0                       0                       0    9.9681702891985E-009                       0                       0       0.957308351993561        0.99754673242569                       1                       0                       0                       3 
                 1.0501     0.00575143785946486        1.85070979689942        1.77388215840411     0.00407342112697292        6.94464984107544         2.4378089677221        1.84412094504982    9.9681702891985E-009                       0                       0                       0                       0    9.9681702891985E-009                       0                       0       0.957308351993561        0.99754673242569                       1                       0                       0                       3 
                 1.0501     0.00600150037509378         1.8506952556916        1.77386917326651     0.00425867656688908        6.94461399780305        2.43779684110599        1.84412626609449    9.9681702891985E-009                       0                       0                       0                       0    9.9681702891985E-009                       0                       0       0.957308351993561        0.99754673242569                       1                       0                       0                       3 
                 1.0501     0.00625156289072271        1.85068071448379        1.77385618812891     0.00444393200680524        6.94457815453066        2.43778471448988        1.84413158713917    9.9681702891985E-009                       0                       0                       0                       0    9.9681702891985E-009                       0                       0       0.957308351993561        0.99754673242569                       1                       0                       0                       3 
                 1.0501     0.00650162540635157        1.85066617327598         1.7738432029913     0.00462918744672137        6.94454231125827        2.43777258787378        1.84413690818385    9.9681702891985E-009                       0                       0                       0                       0    9.9681702891985E-009                       0                       0       0.957308351993561        0.99754673242569                       1                       0                       0                       3 
                 1.0501      0.0067516879219805        1.85065440356704        1.77383243596497     0.00477755103875738        6.94450446727688        2.43775932103597        1.84413860180325    9.9681702891985E-009                       0                       0                       0                       0    9.9681702891985E-009                       0                       0       0.957308351993561        0.99754673242569                       1                       0                       0                       3 
                 1.0501     0.00700175043760942        1.85064801384196        1.77382597469643     0.00485430083771305        6.94446273955508        2.43774384082028        1.84413325392977    9.9681702891985E-009                       0                       0                       0                       0    9.9681702891985E-009                       0                       0       0.957308351993561        0.99754673242569                       1                       0                       0                       3 
                 1.0501     0.00725181295323829        1.85064162411688         1.7738195134279      0.0049310506366687        6.94442101183328        2.43772836060458        1.84412790605629    9.9681702891985E-009                       0                       0                       0                       0    9.9681702891985E-009                       0                       0       0.957308351993561        0.99754673242569                       1                       0                       0                       3 
                 1.0501     0.00750187546886721         1.8506352343918        1.77381305215936     0.00500780043562436        6.94437928411148        2.43771288038889        1.84412255818282    9.9681702891985E-009                       0                       0                       0                       0    9.9681702891985E-009                       0                       0       0.957308351993561        0.99754673242569                       1                       0                       0                       3 
                 1.0501     0.00775193798449614        1.85062884466672        1.77380659089082     0.00508455023458003        6.94433755638968        2.43769740017319        1.84411721030934    9.9681702891985E-009                       0                       0                       0                       0    9.9681702891985E-009                       0                       0       0.957308351993561        0.99754673242569                       1                       0                       0                       3 
                 1.0501     0.00800200050012501        1.85062245494164        1.77380012962228     0.00516130003353568        6.94429582866788         2.4376819199575        1.84411186243587    9.9681702891985E-009                       0                       0                       0                       0    9.9681702891985E-009                       0                       0       0.957308351993561        0.99754673242569                       1                       0                       0                       3 
                 1.0501     0.00825206301575393        1.85061606521656        1.77379366835374     0.00523804983249134        6.94425410094609         2.4376664397418        1.84410651456239    9.9681702891985E-009                       0                       0                       0                       0    9.9681702891985E-009                       0                       0       0.957308351993561        0.99754673242569                       1                       0                       0                       3 
                 1.0501     0.00850212553138285        1.85060967549148         1.7737872070852     0.00531479963144701        6.94421237322429        2.43765095952611        1.84410116668892    9.9681702891985E-009                       0                       0                       0                       0    9.9681702891985E-009                       0                       0       0.957308351993561        0.99754673242569                       1                       0                       0                       3 
                 1.0501     0.00875218804701178         1.8506032857664        1.77378074581667     0.00539154943040268        6.94417064550249        2.43763547931041        1.84409581881544    9.9681702891985E-009                       0                       0                       0                       0    9.9681702891985E-009                       0                       0       0.957308351993561        0.99754673242569                       1                       0                       0                       3 
                 1.0501     0.00900225056264065        1.85059689604132        1.77377428454813     0.00546829922935833        6.94412891778069        2.43761999909472        1.84409047094197    9.9681702891985E-009                       0                       0                       0                       0    9.9681702891985E-009                       0                       0       0.957308351993561        0.99754673242569                       1                       0                       0                       3 
                 1.0501     0.00925231307826957        1.85059050631623        1.77376782327959     0.00554504902831399        6.94408719005889        2.43760451887902        1.84408512306849    9.9681702891985E-009                       0                       0                       0                       0    9.9681702891985E-009                       0                       0       0.957308351993561        0.99754673242569                       1                       0                       0                       3 
                 1.0501     0.00950237559389849        1.85058411659115        1.77376136201105     0.00562179882726966        6.94404546233709        2.43758903866333        1.84407977519502    9.9681702891985E-009                       0                       0                       0                       0    9.9681702891985E-009                       0                       0       0.957308351993561        0.99754673242569                       1                       0                       0                       3 
                 1.0501     0.00975243810952736        1.85057772686607        1.77375490074251     0.00569854862622531        6.94400373461529        2.43757355844763        1.84407442732154    9.9681702891985E-009                       0                       0                       0                       0    9.9681702891985E-009                       0                       0       0.957308351993561        0.99754673242569                       1                       0                       0                       3 
                 1.0501      0.0100025006251563        1.85057133714099        1.77374843947397     0.00577529842518097         6.9439620068935        2.43755807823194        1.84406907944807    9.9681702891985E-009                       0                       0                       0                       0    9.9681702891985E-009                       0                       0       0.957308351993561        0.99754673242569                       1                       0                       0                       3 
                 1.0501      0.0102525631407852        1.85056405562716        1.77374296271841     0.00585286382222693        6.94391748653656        2.43754093443477        1.84406336340492    9.9681702891985E-009                       0                       0                       0                       0    9.9681702891985E-009                       0                       0       0.957308351993561        0.99754673242569                       1                       0                       0                       3 
                 1.0501      0.0105026256564141        1.85055620373265        1.77373811564914     0.00593095086901803        6.94387118003346        2.43752272662474        1.84405741188352    9.9681702891985E-009                       0                       0                       0                       0    9.9681702891985E-009                       0                       0       0.957308351993561        0.99754673242569                       1                       0                       0                       3 
                 1.0501       0.010752688172043        1.85054835183815        1.77373326857987     0.00600903791580914        6.94382487353036        2.43750451881472        1.84405146036212    9.9681702891985E-009                       0                       0                       0                       0    9.9681702891985E-009                       0                       0       0.957308351993561        0.99754673242569                       1                       0                       0                       3 
                 1.0501      0.0110027506876719        1.85054049994365         1.7737284215106     0.00608712496260025        6.94377856702726        2.43748631100469        1.84404550884072    9.9681702891985E-009                       0                       0                       0                       0    9.9681702891985E-009                       0                       0       0.957308351993561        0.99754673242569                       1                       0                       0                       3 
                 1.0501      0.0112528132033008        1.85053264804915        1.77372357444133     0.00616521200939137        6.94373226052416        2.43746810319466        1.84403955731932    9.9681702891985E-009                       0                       0                       0                       0    9.9681702891985E-009                       0                       0       0.957308351993561        0.99754673242569                       1                       0                       0                       3 
                 1.0501      0.0115028757189297        1.85052479615465        1.77371872737206     0.00624329905618246        6.94368595402106        2.43744989538464        1.84403360579792    9.9681702891985E-009                       0                       0                       0                       0    9.9681702891985E-009                       0                       0       0.957308351993561        0.99754673242569                       1                       0                       0                       3 
                 1.0501      0.0117529382345586        1.85051694426015        1.77371388030279     0.00632138610297358        6.94363964751795        2.43743168757461        1.84402765427651    9.9681702891985E-009                       0                       0                       0                       0    9.9681702891985E-009                       0                       0       0.957308351993561        0.99754673242569                       1                       0                       0                       3 
                 1.0501      0.0120030007501876        1.85050909236565        1.77370903323352     0.00639947314976469        6.94359334101485        2.43741347976458        1.84402170275511    9.9681702891985E-009                       0                       0                       0                       0    9.9681702891985E-009                       0                       0       0.957308351993561        0.99754673242569                       1                       0                       0                       3 
                 1.0501      0.0122530632658164        1.85050124047115        1.77370418616425     0.00647756019655578        6.94354703451175        2.43739527195456        1.84401575123371    9.9681702891985E-009                       0                       0                       0                       0    9.9681702891985E-009                       0                       0       0.957308351993561        0.99754673242569                       1                       0                       0                       3 
                 1.0501      0.0125031257814454        1.85049338857665        1.77369933909498      0.0065556472433469        6.94350072800865        2.43737706414453        1.84400979971231    9.9681702891985E-009                       0                       0                       0                       0    9.9681702891985E-009                       0                       0       0.957308351993561        0.99754673242569                       1                       0                       0                       3 
                 1.0501      0.0127531882970743        1.85048553668215        1.77369449202571     0.00663373429013801        6.94345442150555        2.43735885633451        1.84400384819091    9.9681702891985E-009                       0                       0                       0                       0    9.9681702891985E-009                       0                       0       0.957308351993561        0.99754673242569                       1                       0                       0                       3 
                 1.0501      0.0130032508127031        1.85047768478765        1.77368964495644     0.00671182133692911        6.94340811500244        2.43734064852448        1.84399789666951    9.9681702891985E-009                       0                       0                       0                       0    9.9681702891985E-009                       0                       0       0.957308351993561        0.99754673242569                       1                       0                       0                       3 
                 1.0501      0.0132533133283321        1.85046983289315        1.77368479788717     0.00678990838372022        6.94336180849934        2.43732244071445        1.84399194514811    9.9681702891985E-009                       0                       0                       0                       0    9.9681702891985E-009                       0                       0       0.957308351993561        0.99754673242569                       1                       0                       0                       3 
                 1.0501       0.013503375843961        1.85046752399641        1.77368438704059     0.00679421171738595        6.94331148841091        2.43730204367674        1.84397881478935    9.9681702891985E-009                       0                       0                       0                       0    9.9681702891985E-009                       0                       0       0.957308351993561        0.99754673242569                       1                       0                       0                       3 